MODEL 1
REMARK VINA RESULT:      -8.8      0.000      0.000
REMARK  5 active torsions:
REMARK  status: ('A' for Active; 'I' for Inactive)
REMARK    1  A    between atoms: N_4  and  C_5 
REMARK    2  A    between atoms: C_5  and  C_6 
REMARK    3  A    between atoms: C_6  and  N_7 
REMARK    4  A    between atoms: C_11  and  N_12 
REMARK    5  A    between atoms: C_15  and  C_16 
REMARK       I    between atoms: C_16  and  N_18 
ROOT
HETATM    1  N   UNK N   1      41.324  38.288  51.054  0.00  0.00    -0.284 N 
HETATM    2  N   UNK N   1      42.464  38.772  51.530  0.00  0.00    -0.292 N 
ATOM      3  HN  UNK N   1      43.375  38.687  51.079  1.00  0.00     0.187 HD
HETATM    4  C   UNK N   1      42.227  39.394  52.703  0.00  0.00     0.126 A 
HETATM    5  C   UNK N   1      40.877  39.280  53.001  0.00  0.00     0.019 A 
HETATM    6  C   UNK N   1      40.305  38.622  51.904  0.00  0.00     0.072 A 
HETATM    7  C   UNK N   1      38.810  38.373  51.731  0.00  0.00     0.014 A 
HETATM    8  C   UNK N   1      38.204  38.181  50.466  0.00  0.00     0.015 A 
HETATM    9  C   UNK N   1      36.826  37.972  50.352  0.00  0.00     0.001 A 
HETATM   10  C   UNK N   1      36.018  37.968  51.486  0.00  0.00     0.002 A 
HETATM   11  C   UNK N   1      36.580  38.205  52.737  0.00  0.00     0.024 A 
HETATM   12  C   UNK N   1      37.958  38.422  52.856  0.00  0.00     0.072 A 
HETATM   13  S   UNK N   1      38.662  38.824  54.425  0.00  0.00     0.180 S 
HETATM   14  O   UNK N   1      38.895  37.528  55.217  0.00  0.00    -0.222 OA
HETATM   15  O   UNK N   1      37.657  39.573  55.314  0.00  0.00    -0.222 OA
HETATM   16  C   UNK N   1      40.205  39.734  54.272  0.00  0.00     0.189 C 
ENDROOT
BRANCH   1  17
HETATM   17  C   UNK N   1      41.276  37.425  49.855  0.00  0.00     0.137 C 
HETATM   18  C   UNK N   1      42.034  38.051  48.678  0.00  0.00     0.031 C 
HETATM   19  C   UNK N   1      43.559  37.963  48.830  0.00  0.00     0.032 C 
HETATM   20  C   UNK N   1      44.019  36.667  49.535  0.00  0.00     0.272 C 
HETATM   21  N   UNK N   1      43.031  35.579  49.476  0.00  0.00     0.092 N 
HETATM   22  C   UNK N   1      41.760  35.963  50.152  0.00  0.00     0.299 C 
BRANCH  21  23
HETATM   23  C   UNK N   1      42.853  34.964  48.141  0.00  0.00     0.291 C 
BRANCH  23  24
HETATM   24  C   UNK N   1      42.726  33.435  48.280  0.00  0.00     0.147 C 
BRANCH  24  25
HETATM   25  N   UNK N   1      43.525  32.662  47.302  0.00  0.00    -0.406 N 
HETATM   26  C   UNK N   1      44.713  31.944  47.796  0.00  0.00     0.148 C 
HETATM   27  C   UNK N   1      46.001  32.813  47.668  0.00  0.00     0.135 C 
HETATM   28  C   UNK N   1      47.250  31.936  47.754  0.00  0.00     0.041 C 
HETATM   29  O   UNK N   1      46.066  33.618  46.489  0.00  0.00    -0.383 OA
HETATM   30  C   UNK N   1      45.171  33.183  45.488  0.00  0.00     0.187 C 
HETATM   31  C   UNK N   1      43.720  33.314  45.984  0.00  0.00     0.143 C 
ENDBRANCH  24  25
ENDBRANCH  23  24
ENDBRANCH  21  23
ENDBRANCH   1  17
BRANCH   4  32
HETATM   32  C   UNK N   1      43.257  40.097  53.543  0.00  0.00     0.272 C 
HETATM   33  O   UNK N   1      42.890  41.073  54.184  0.00  0.00    -0.266 OA
HETATM   34  N   UNK N   1      44.579  39.711  53.620  0.00  0.00    -0.343 N 
HETATM   35  C   UNK N   1      45.515  40.582  54.346  0.00  0.00     0.152 C 
HETATM   36  C   UNK N   1      45.069  38.549  52.876  0.00  0.00     0.152 C 
HETATM   37  C   UNK N   1      46.924  39.996  54.492  0.00  0.00     0.187 C 
HETATM   38  O   UNK N   1      47.312  39.327  53.312  0.00  0.00    -0.388 OA
HETATM   39  C   UNK N   1      46.509  38.169  53.224  0.00  0.00     0.187 C 
ENDBRANCH   4  32
TORSDOF 5
ENDMDL
MODEL 2
REMARK VINA RESULT:      -8.7      3.941      8.227
REMARK  5 active torsions:
REMARK  status: ('A' for Active; 'I' for Inactive)
REMARK    1  A    between atoms: N_4  and  C_5 
REMARK    2  A    between atoms: C_5  and  C_6 
REMARK    3  A    between atoms: C_6  and  N_7 
REMARK    4  A    between atoms: C_11  and  N_12 
REMARK    5  A    between atoms: C_15  and  C_16 
REMARK       I    between atoms: C_16  and  N_18 
ROOT
HETATM    1  N   UNK N   1      39.250  35.109  49.705  0.00  0.00    -0.284 N 
HETATM    2  N   UNK N   1      39.558  34.370  48.647  0.00  0.00    -0.292 N 
ATOM      3  HN  UNK N   1      39.010  33.586  48.294  1.00  0.00     0.187 HD
HETATM    4  C   UNK N   1      40.712  34.821  48.113  0.00  0.00     0.126 A 
HETATM    5  C   UNK N   1      41.172  35.881  48.879  0.00  0.00     0.019 A 
HETATM    6  C   UNK N   1      40.191  36.090  49.858  0.00  0.00     0.072 A 
HETATM    7  C   UNK N   1      40.210  37.232  50.868  0.00  0.00     0.014 A 
HETATM    8  C   UNK N   1      39.038  37.728  51.490  0.00  0.00     0.015 A 
HETATM    9  C   UNK N   1      39.100  38.790  52.398  0.00  0.00     0.001 A 
HETATM   10  C   UNK N   1      40.319  39.393  52.695  0.00  0.00     0.002 A 
HETATM   11  C   UNK N   1      41.479  38.959  52.061  0.00  0.00     0.024 A 
HETATM   12  C   UNK N   1      41.422  37.902  51.145  0.00  0.00     0.072 A 
HETATM   13  S   UNK N   1      42.871  37.414  50.261  0.00  0.00     0.180 S 
HETATM   14  O   UNK N   1      43.707  36.476  51.145  0.00  0.00    -0.222 OA
HETATM   15  O   UNK N   1      43.825  38.600  50.051  0.00  0.00    -0.222 OA
HETATM   16  C   UNK N   1      42.484  36.604  48.703  0.00  0.00     0.189 C 
ENDROOT
BRANCH   1  17
HETATM   17  C   UNK N   1      38.118  34.773  50.595  0.00  0.00     0.137 C 
HETATM   18  C   UNK N   1      36.826  35.472  50.156  0.00  0.00     0.031 C 
HETATM   19  C   UNK N   1      36.193  34.837  48.909  0.00  0.00     0.032 C 
HETATM   20  C   UNK N   1      36.383  33.304  48.854  0.00  0.00     0.272 C 
HETATM   21  N   UNK N   1      36.661  32.695  50.164  0.00  0.00     0.092 N 
HETATM   22  C   UNK N   1      37.922  33.225  50.752  0.00  0.00     0.299 C 
BRANCH  21  23
HETATM   23  C   UNK N   1      35.513  32.666  51.098  0.00  0.00     0.291 C 
BRANCH  23  24
HETATM   24  C   UNK N   1      35.902  31.911  52.384  0.00  0.00     0.147 C 
BRANCH  24  25
HETATM   25  N   UNK N   1      35.683  32.675  53.634  0.00  0.00    -0.406 N 
HETATM   26  C   UNK N   1      36.051  34.101  53.644  0.00  0.00     0.148 C 
HETATM   27  C   UNK N   1      37.509  34.314  54.154  0.00  0.00     0.135 C 
HETATM   28  C   UNK N   1      37.723  35.767  54.577  0.00  0.00     0.041 C 
HETATM   29  O   UNK N   1      37.902  33.446  55.220  0.00  0.00    -0.383 OA
HETATM   30  C   UNK N   1      36.798  32.854  55.870  0.00  0.00     0.187 C 
HETATM   31  C   UNK N   1      36.026  31.957  54.886  0.00  0.00     0.143 C 
ENDBRANCH  24  25
ENDBRANCH  23  24
ENDBRANCH  21  23
ENDBRANCH   1  17
BRANCH   4  32
HETATM   32  C   UNK N   1      41.381  34.266  46.886  0.00  0.00     0.272 C 
HETATM   33  O   UNK N   1      40.972  34.652  45.798  0.00  0.00    -0.266 OA
HETATM   34  N   UNK N   1      42.411  33.349  46.920  0.00  0.00    -0.343 N 
HETATM   35  C   UNK N   1      42.863  32.765  45.649  0.00  0.00     0.152 C 
HETATM   36  C   UNK N   1      42.939  32.858  48.195  0.00  0.00     0.152 C 
HETATM   37  C   UNK N   1      44.099  31.869  45.781  0.00  0.00     0.187 C 
HETATM   38  O   UNK N   1      44.031  31.095  46.959  0.00  0.00    -0.388 OA
HETATM   39  C   UNK N   1      44.189  31.991  48.038  0.00  0.00     0.187 C 
ENDBRANCH   4  32
TORSDOF 5
ENDMDL
MODEL 3
REMARK VINA RESULT:      -8.4      4.647      7.918
REMARK  5 active torsions:
REMARK  status: ('A' for Active; 'I' for Inactive)
REMARK    1  A    between atoms: N_4  and  C_5 
REMARK    2  A    between atoms: C_5  and  C_6 
REMARK    3  A    between atoms: C_6  and  N_7 
REMARK    4  A    between atoms: C_11  and  N_12 
REMARK    5  A    between atoms: C_15  and  C_16 
REMARK       I    between atoms: C_16  and  N_18 
ROOT
HETATM    1  N   UNK N   1      39.868  39.289  54.826  0.00  0.00    -0.284 N 
HETATM    2  N   UNK N   1      39.645  39.573  56.103  0.00  0.00    -0.292 N 
ATOM      3  HN  UNK N   1      38.733  39.566  56.560  1.00  0.00     0.187 HD
HETATM    4  C   UNK N   1      40.817  39.871  56.701  0.00  0.00     0.126 A 
HETATM    5  C   UNK N   1      41.830  39.797  55.756  0.00  0.00     0.019 A 
HETATM    6  C   UNK N   1      41.211  39.363  54.576  0.00  0.00     0.072 A 
HETATM    7  C   UNK N   1      41.952  39.029  53.286  0.00  0.00     0.014 A 
HETATM    8  C   UNK N   1      41.430  38.151  52.305  0.00  0.00     0.015 A 
HETATM    9  C   UNK N   1      42.152  37.858  51.144  0.00  0.00     0.001 A 
HETATM   10  C   UNK N   1      43.412  38.413  50.939  0.00  0.00     0.002 A 
HETATM   11  C   UNK N   1      43.971  39.239  51.910  0.00  0.00     0.024 A 
HETATM   12  C   UNK N   1      43.256  39.530  53.078  0.00  0.00     0.072 A 
HETATM   13  S   UNK N   1      43.999  40.493  54.358  0.00  0.00     0.180 S 
HETATM   14  O   UNK N   1      43.853  41.983  54.014  0.00  0.00    -0.222 OA
HETATM   15  O   UNK N   1      45.524  40.311  54.382  0.00  0.00    -0.222 OA
HETATM   16  C   UNK N   1      43.276  40.164  55.972  0.00  0.00     0.189 C 
ENDROOT
BRANCH   1  17
HETATM   17  C   UNK N   1      38.765  39.065  53.868  0.00  0.00     0.137 C 
HETATM   18  C   UNK N   1      38.370  37.585  53.795  0.00  0.00     0.031 C 
HETATM   19  C   UNK N   1      37.567  37.116  55.017  0.00  0.00     0.032 C 
HETATM   20  C   UNK N   1      36.631  38.211  55.577  0.00  0.00     0.272 C 
HETATM   21  N   UNK N   1      36.305  39.265  54.603  0.00  0.00     0.092 N 
HETATM   22  C   UNK N   1      37.528  39.986  54.155  0.00  0.00     0.299 C 
BRANCH  21  23
HETATM   23  C   UNK N   1      35.403  38.849  53.506  0.00  0.00     0.291 C 
BRANCH  23  24
HETATM   24  C   UNK N   1      35.532  39.825  52.320  0.00  0.00     0.147 C 
BRANCH  24  25
HETATM   25  N   UNK N   1      35.584  39.173  50.992  0.00  0.00    -0.406 N 
HETATM   26  C   UNK N   1      36.520  38.050  50.811  0.00  0.00     0.148 C 
HETATM   27  C   UNK N   1      37.898  38.533  50.265  0.00  0.00     0.135 C 
HETATM   28  C   UNK N   1      38.681  37.362  49.672  0.00  0.00     0.041 C 
HETATM   29  O   UNK N   1      37.824  39.590  49.306  0.00  0.00    -0.383 OA
HETATM   30  C   UNK N   1      36.537  39.717  48.740  0.00  0.00     0.187 C 
HETATM   31  C   UNK N   1      35.517  40.093  49.830  0.00  0.00     0.143 C 
ENDBRANCH  24  25
ENDBRANCH  23  24
ENDBRANCH  21  23
ENDBRANCH   1  17
BRANCH   4  32
HETATM   32  C   UNK N   1      40.992  40.220  58.154  0.00  0.00     0.272 C 
HETATM   33  O   UNK N   1      41.631  39.439  58.847  0.00  0.00    -0.266 OA
HETATM   34  N   UNK N   1      40.469  41.354  58.740  0.00  0.00    -0.343 N 
HETATM   35  C   UNK N   1      40.573  41.491  60.200  0.00  0.00     0.152 C 
HETATM   36  C   UNK N   1      39.700  42.322  57.954  0.00  0.00     0.152 C 
HETATM   37  C   UNK N   1      40.089  42.844  60.734  0.00  0.00     0.187 C 
HETATM   38  O   UNK N   1      38.939  43.272  60.038  0.00  0.00    -0.388 OA
HETATM   39  C   UNK N   1      39.357  43.595  58.729  0.00  0.00     0.187 C 
ENDBRANCH   4  32
TORSDOF 5
ENDMDL
MODEL 4
REMARK VINA RESULT:      -8.3      4.123      9.481
REMARK  5 active torsions:
REMARK  status: ('A' for Active; 'I' for Inactive)
REMARK    1  A    between atoms: N_4  and  C_5 
REMARK    2  A    between atoms: C_5  and  C_6 
REMARK    3  A    between atoms: C_6  and  N_7 
REMARK    4  A    between atoms: C_11  and  N_12 
REMARK    5  A    between atoms: C_15  and  C_16 
REMARK       I    between atoms: C_16  and  N_18 
ROOT
HETATM    1  N   UNK N   1      39.020  36.285  50.349  0.00  0.00    -0.284 N 
HETATM    2  N   UNK N   1      38.018  35.553  49.877  0.00  0.00    -0.292 N 
ATOM      3  HN  UNK N   1      37.054  35.591  50.206  1.00  0.00     0.187 HD
HETATM    4  C   UNK N   1      38.479  34.754  48.893  0.00  0.00     0.126 A 
HETATM    5  C   UNK N   1      39.841  34.968  48.747  0.00  0.00     0.019 A 
HETATM    6  C   UNK N   1      40.158  35.996  49.646  0.00  0.00     0.072 A 
HETATM    7  C   UNK N   1      41.531  36.649  49.760  0.00  0.00     0.014 A 
HETATM    8  C   UNK N   1      41.719  37.957  50.270  0.00  0.00     0.015 A 
HETATM    9  C   UNK N   1      42.995  38.524  50.341  0.00  0.00     0.001 A 
HETATM   10  C   UNK N   1      44.107  37.817  49.892  0.00  0.00     0.002 A 
HETATM   11  C   UNK N   1      43.945  36.550  49.339  0.00  0.00     0.024 A 
HETATM   12  C   UNK N   1      42.668  35.980  49.259  0.00  0.00     0.072 A 
HETATM   13  S   UNK N   1      42.442  34.417  48.467  0.00  0.00     0.180 S 
HETATM   14  O   UNK N   1      42.774  33.297  49.464  0.00  0.00    -0.222 OA
HETATM   15  O   UNK N   1      43.486  34.193  47.363  0.00  0.00    -0.222 OA
HETATM   16  C   UNK N   1      40.770  34.203  47.839  0.00  0.00     0.189 C 
ENDROOT
BRANCH   1  17
HETATM   17  C   UNK N   1      38.867  37.154  51.535  0.00  0.00     0.137 C 
HETATM   18  C   UNK N   1      38.280  38.521  51.163  0.00  0.00     0.031 C 
HETATM   19  C   UNK N   1      36.776  38.465  50.858  0.00  0.00     0.032 C 
HETATM   20  C   UNK N   1      36.023  37.433  51.728  0.00  0.00     0.272 C 
HETATM   21  N   UNK N   1      36.730  37.080  52.969  0.00  0.00     0.092 N 
HETATM   22  C   UNK N   1      38.054  36.460  52.682  0.00  0.00     0.299 C 
BRANCH  21  23
HETATM   23  C   UNK N   1      36.762  38.143  53.998  0.00  0.00     0.291 C 
BRANCH  23  24
HETATM   24  C   UNK N   1      37.835  37.820  55.056  0.00  0.00     0.147 C 
BRANCH  24  25
HETATM   25  N   UNK N   1      38.679  38.972  55.447  0.00  0.00    -0.406 N 
HETATM   26  C   UNK N   1      39.245  39.807  54.373  0.00  0.00     0.148 C 
HETATM   27  C   UNK N   1      40.669  39.323  53.961  0.00  0.00     0.135 C 
HETATM   28  C   UNK N   1      41.409  40.421  53.197  0.00  0.00     0.041 C 
HETATM   29  O   UNK N   1      41.482  38.865  55.043  0.00  0.00    -0.383 OA
HETATM   30  C   UNK N   1      41.010  39.307  56.298  0.00  0.00     0.187 C 
HETATM   31  C   UNK N   1      39.613  38.722  56.572  0.00  0.00     0.143 C 
ENDBRANCH  24  25
ENDBRANCH  23  24
ENDBRANCH  21  23
ENDBRANCH   1  17
BRANCH   4  32
HETATM   32  C   UNK N   1      37.647  33.795  48.086  0.00  0.00     0.272 C 
HETATM   33  O   UNK N   1      37.703  33.889  46.866  0.00  0.00    -0.266 OA
HETATM   34  N   UNK N   1      36.828  32.834  48.640  0.00  0.00    -0.343 N 
HETATM   35  C   UNK N   1      35.945  32.073  47.745  0.00  0.00     0.152 C 
HETATM   36  C   UNK N   1      36.728  32.677  50.093  0.00  0.00     0.152 C 
HETATM   37  C   UNK N   1      35.183  30.939  48.437  0.00  0.00     0.187 C 
HETATM   38  O   UNK N   1      34.754  31.337  49.721  0.00  0.00    -0.388 OA
HETATM   39  C   UNK N   1      35.916  31.451  50.515  0.00  0.00     0.187 C 
ENDBRANCH   4  32
TORSDOF 5
ENDMDL
MODEL 5
REMARK VINA RESULT:      -8.3      4.253     10.303
REMARK  5 active torsions:
REMARK  status: ('A' for Active; 'I' for Inactive)
REMARK    1  A    between atoms: N_4  and  C_5 
REMARK    2  A    between atoms: C_5  and  C_6 
REMARK    3  A    between atoms: C_6  and  N_7 
REMARK    4  A    between atoms: C_11  and  N_12 
REMARK    5  A    between atoms: C_15  and  C_16 
REMARK       I    between atoms: C_16  and  N_18 
ROOT
HETATM    1  N   UNK N   1      40.842  38.949  53.956  0.00  0.00    -0.284 N 
HETATM    2  N   UNK N   1      39.740  38.792  53.233  0.00  0.00    -0.292 N 
ATOM      3  HN  UNK N   1      38.788  38.808  53.596  1.00  0.00     0.187 HD
HETATM    4  C   UNK N   1      40.082  38.611  51.940  0.00  0.00     0.126 A 
HETATM    5  C   UNK N   1      41.465  38.629  51.839  0.00  0.00     0.019 A 
HETATM    6  C   UNK N   1      41.932  38.908  53.131  0.00  0.00     0.072 A 
HETATM    7  C   UNK N   1      43.397  39.136  53.488  0.00  0.00     0.014 A 
HETATM    8  C   UNK N   1      43.805  39.880  54.621  0.00  0.00     0.015 A 
HETATM    9  C   UNK N   1      45.160  40.080  54.901  0.00  0.00     0.001 A 
HETATM   10  C   UNK N   1      46.138  39.562  54.056  0.00  0.00     0.002 A 
HETATM   11  C   UNK N   1      45.765  38.869  52.908  0.00  0.00     0.024 A 
HETATM   12  C   UNK N   1      44.409  38.673  52.618  0.00  0.00     0.072 A 
HETATM   13  S   UNK N   1      43.928  37.885  51.113  0.00  0.00     0.180 S 
HETATM   14  O   UNK N   1      44.009  36.362  51.295  0.00  0.00    -0.222 OA
HETATM   15  O   UNK N   1      44.952  38.136  49.997  0.00  0.00    -0.222 OA
HETATM   16  C   UNK N   1      42.270  38.352  50.595  0.00  0.00     0.189 C 
ENDROOT
BRANCH   1  17
HETATM   17  C   UNK N   1      40.808  39.021  55.432  0.00  0.00     0.137 C 
HETATM   18  C   UNK N   1      40.650  40.464  55.925  0.00  0.00     0.031 C 
HETATM   19  C   UNK N   1      39.225  41.008  55.744  0.00  0.00     0.032 C 
HETATM   20  C   UNK N   1      38.139  39.927  55.942  0.00  0.00     0.272 C 
HETATM   21  N   UNK N   1      38.595  38.767  56.724  0.00  0.00     0.092 N 
HETATM   22  C   UNK N   1      39.726  38.069  56.052  0.00  0.00     0.299 C 
BRANCH  21  23
HETATM   23  C   UNK N   1      38.806  39.027  58.166  0.00  0.00     0.291 C 
BRANCH  23  24
HETATM   24  C   UNK N   1      37.652  39.884  58.720  0.00  0.00     0.147 C 
BRANCH  24  25
HETATM   25  N   UNK N   1      38.084  41.070  59.493  0.00  0.00    -0.406 N 
HETATM   26  C   UNK N   1      37.241  42.277  59.434  0.00  0.00     0.148 C 
HETATM   27  C   UNK N   1      37.708  43.248  58.306  0.00  0.00     0.135 C 
HETATM   28  C   UNK N   1      37.139  44.648  58.534  0.00  0.00     0.041 C 
HETATM   29  O   UNK N   1      39.124  43.332  58.138  0.00  0.00    -0.383 OA
HETATM   30  C   UNK N   1      39.832  42.850  59.260  0.00  0.00     0.187 C 
HETATM   31  C   UNK N   1      39.540  41.352  59.463  0.00  0.00     0.143 C 
ENDBRANCH  24  25
ENDBRANCH  23  24
ENDBRANCH  21  23
ENDBRANCH   1  17
BRANCH   4  32
HETATM   32  C   UNK N   1      39.118  38.427  50.800  0.00  0.00     0.272 C 
HETATM   33  O   UNK N   1      38.934  39.383  50.058  0.00  0.00    -0.266 OA
HETATM   34  N   UNK N   1      38.432  37.256  50.556  0.00  0.00    -0.343 N 
HETATM   35  C   UNK N   1      37.399  37.261  49.511  0.00  0.00     0.152 C 
HETATM   36  C   UNK N   1      38.618  36.082  51.412  0.00  0.00     0.152 C 
HETATM   37  C   UNK N   1      36.796  35.882  49.223  0.00  0.00     0.187 C 
HETATM   38  O   UNK N   1      36.623  35.154  50.419  0.00  0.00    -0.388 OA
HETATM   39  C   UNK N   1      37.916  34.830  50.884  0.00  0.00     0.187 C 
ENDBRANCH   4  32
TORSDOF 5
ENDMDL
MODEL 6
REMARK VINA RESULT:      -8.2      3.749      6.150
REMARK  5 active torsions:
REMARK  status: ('A' for Active; 'I' for Inactive)
REMARK    1  A    between atoms: N_4  and  C_5 
REMARK    2  A    between atoms: C_5  and  C_6 
REMARK    3  A    between atoms: C_6  and  N_7 
REMARK    4  A    between atoms: C_11  and  N_12 
REMARK    5  A    between atoms: C_15  and  C_16 
REMARK       I    between atoms: C_16  and  N_18 
ROOT
HETATM    1  N   UNK N   1      41.391  39.919  55.080  0.00  0.00    -0.284 N 
HETATM    2  N   UNK N   1      41.857  40.569  56.139  0.00  0.00    -0.292 N 
ATOM      3  HN  UNK N   1      42.696  41.147  56.155  1.00  0.00     0.187 HD
HETATM    4  C   UNK N   1      41.042  40.344  57.191  0.00  0.00     0.126 A 
HETATM    5  C   UNK N   1      40.024  39.492  56.789  0.00  0.00     0.019 A 
HETATM    6  C   UNK N   1      40.230  39.280  55.419  0.00  0.00     0.072 A 
HETATM    7  C   UNK N   1      39.287  38.491  54.517  0.00  0.00     0.014 A 
HETATM    8  C   UNK N   1      39.217  38.691  53.117  0.00  0.00     0.015 A 
HETATM    9  C   UNK N   1      38.324  37.957  52.329  0.00  0.00     0.001 A 
HETATM   10  C   UNK N   1      37.470  37.026  52.913  0.00  0.00     0.002 A 
HETATM   11  C   UNK N   1      37.482  36.846  54.293  0.00  0.00     0.024 A 
HETATM   12  C   UNK N   1      38.368  37.583  55.088  0.00  0.00     0.072 A 
HETATM   13  S   UNK N   1      38.318  37.434  56.847  0.00  0.00     0.180 S 
HETATM   14  O   UNK N   1      39.122  36.196  57.269  0.00  0.00    -0.222 OA
HETATM   15  O   UNK N   1      36.904  37.090  57.339  0.00  0.00    -0.222 OA
HETATM   16  C   UNK N   1      38.961  38.894  57.677  0.00  0.00     0.189 C 
ENDROOT
BRANCH   1  17
HETATM   17  C   UNK N   1      42.143  39.847  53.810  0.00  0.00     0.137 C 
HETATM   18  C   UNK N   1      43.058  41.064  53.624  0.00  0.00     0.031 C 
HETATM   19  C   UNK N   1      44.311  41.014  54.511  0.00  0.00     0.032 C 
HETATM   20  C   UNK N   1      44.848  39.579  54.712  0.00  0.00     0.272 C 
HETATM   21  N   UNK N   1      44.409  38.632  53.674  0.00  0.00     0.092 N 
HETATM   22  C   UNK N   1      42.926  38.497  53.655  0.00  0.00     0.299 C 
BRANCH  21  23
HETATM   23  C   UNK N   1      45.023  38.833  52.342  0.00  0.00     0.291 C 
BRANCH  23  24
HETATM   24  C   UNK N   1      44.189  38.112  51.265  0.00  0.00     0.147 C 
BRANCH  24  25
HETATM   25  N   UNK N   1      43.640  39.002  50.217  0.00  0.00    -0.406 N 
HETATM   26  C   UNK N   1      42.209  39.345  50.284  0.00  0.00     0.148 C 
HETATM   27  C   UNK N   1      41.343  38.360  49.441  0.00  0.00     0.135 C 
HETATM   28  C   UNK N   1      39.968  38.963  49.155  0.00  0.00     0.041 C 
HETATM   29  O   UNK N   1      41.942  37.938  48.214  0.00  0.00    -0.383 OA
HETATM   30  C   UNK N   1      42.995  38.784  47.807  0.00  0.00     0.187 C 
HETATM   31  C   UNK N   1      44.133  38.745  48.842  0.00  0.00     0.143 C 
ENDBRANCH  24  25
ENDBRANCH  23  24
ENDBRANCH  21  23
ENDBRANCH   1  17
BRANCH   4  32
HETATM   32  C   UNK N   1      41.211  40.927  58.567  0.00  0.00     0.272 C 
HETATM   33  O   UNK N   1      42.047  40.411  59.298  0.00  0.00    -0.266 OA
HETATM   34  N   UNK N   1      40.477  41.991  59.045  0.00  0.00    -0.343 N 
HETATM   35  C   UNK N   1      40.624  42.356  60.462  0.00  0.00     0.152 C 
HETATM   36  C   UNK N   1      39.467  42.646  58.210  0.00  0.00     0.152 C 
HETATM   37  C   UNK N   1      39.876  43.633  60.858  0.00  0.00     0.187 C 
HETATM   38  O   UNK N   1      38.623  43.697  60.213  0.00  0.00    -0.388 OA
HETATM   39  C   UNK N   1      38.886  43.912  58.842  0.00  0.00     0.187 C 
ENDBRANCH   4  32
TORSDOF 5
ENDMDL
MODEL 7
REMARK VINA RESULT:      -8.2      4.244      9.631
REMARK  5 active torsions:
REMARK  status: ('A' for Active; 'I' for Inactive)
REMARK    1  A    between atoms: N_4  and  C_5 
REMARK    2  A    between atoms: C_5  and  C_6 
REMARK    3  A    between atoms: C_6  and  N_7 
REMARK    4  A    between atoms: C_11  and  N_12 
REMARK    5  A    between atoms: C_15  and  C_16 
REMARK       I    between atoms: C_16  and  N_18 
ROOT
HETATM    1  N   UNK N   1      38.302  36.408  51.455  0.00  0.00    -0.284 N 
HETATM    2  N   UNK N   1      37.528  35.333  51.379  0.00  0.00    -0.292 N 
ATOM      3  HN  UNK N   1      36.732  35.134  51.985  1.00  0.00     0.187 HD
HETATM    4  C   UNK N   1      37.960  34.545  50.373  0.00  0.00     0.126 A 
HETATM    5  C   UNK N   1      39.075  35.134  49.796  0.00  0.00     0.019 A 
HETATM    6  C   UNK N   1      39.242  36.356  50.463  0.00  0.00     0.072 A 
HETATM    7  C   UNK N   1      40.284  37.405  50.091  0.00  0.00     0.014 A 
HETATM    8  C   UNK N   1      40.137  38.779  50.405  0.00  0.00     0.015 A 
HETATM    9  C   UNK N   1      41.110  39.711  50.030  0.00  0.00     0.001 A 
HETATM   10  C   UNK N   1      42.238  39.305  49.321  0.00  0.00     0.002 A 
HETATM   11  C   UNK N   1      42.383  37.970  48.956  0.00  0.00     0.024 A 
HETATM   12  C   UNK N   1      41.409  37.034  49.322  0.00  0.00     0.072 A 
HETATM   13  S   UNK N   1      41.536  35.360  48.775  0.00  0.00     0.180 S 
HETATM   14  O   UNK N   1      42.483  34.596  49.712  0.00  0.00    -0.222 OA
HETATM   15  O   UNK N   1      42.264  35.266  47.426  0.00  0.00    -0.222 OA
HETATM   16  C   UNK N   1      39.938  34.535  48.714  0.00  0.00     0.189 C 
ENDROOT
BRANCH   1  17
HETATM   17  C   UNK N   1      38.175  37.391  52.552  0.00  0.00     0.137 C 
HETATM   18  C   UNK N   1      37.215  38.528  52.184  0.00  0.00     0.031 C 
HETATM   19  C   UNK N   1      35.739  38.106  52.229  0.00  0.00     0.032 C 
HETATM   20  C   UNK N   1      35.441  37.079  53.344  0.00  0.00     0.272 C 
HETATM   21  N   UNK N   1      36.438  37.075  54.426  0.00  0.00     0.092 N 
HETATM   22  C   UNK N   1      37.791  36.718  53.915  0.00  0.00     0.299 C 
BRANCH  21  23
HETATM   23  C   UNK N   1      36.411  38.261  55.309  0.00  0.00     0.291 C 
BRANCH  23  24
HETATM   24  C   UNK N   1      37.570  38.191  56.322  0.00  0.00     0.147 C 
BRANCH  24  25
HETATM   25  N   UNK N   1      38.390  39.421  56.404  0.00  0.00    -0.406 N 
HETATM   26  C   UNK N   1      38.859  40.022  55.144  0.00  0.00     0.148 C 
HETATM   27  C   UNK N   1      40.274  39.498  54.751  0.00  0.00     0.135 C 
HETATM   28  C   UNK N   1      40.925  40.427  53.725  0.00  0.00     0.041 C 
HETATM   29  O   UNK N   1      41.166  39.304  55.849  0.00  0.00    -0.383 OA
HETATM   30  C   UNK N   1      40.752  39.991  57.011  0.00  0.00     0.187 C 
HETATM   31  C   UNK N   1      39.397  39.443  57.493  0.00  0.00     0.143 C 
ENDBRANCH  24  25
ENDBRANCH  23  24
ENDBRANCH  21  23
ENDBRANCH   1  17
BRANCH   4  32
HETATM   32  C   UNK N   1      37.330  33.248  49.947  0.00  0.00     0.272 C 
HETATM   33  O   UNK N   1      37.421  32.299  50.715  0.00  0.00    -0.266 OA
HETATM   34  N   UNK N   1      36.672  33.071  48.748  0.00  0.00    -0.343 N 
HETATM   35  C   UNK N   1      36.247  31.711  48.383  0.00  0.00     0.152 C 
HETATM   36  C   UNK N   1      36.532  34.174  47.795  0.00  0.00     0.152 C 
HETATM   37  C   UNK N   1      35.406  31.644  47.105  0.00  0.00     0.187 C 
HETATM   38  O   UNK N   1      35.899  32.541  46.134  0.00  0.00    -0.388 OA
HETATM   39  C   UNK N   1      35.624  33.841  46.611  0.00  0.00     0.187 C 
ENDBRANCH   4  32
TORSDOF 5
ENDMDL
MODEL 8
REMARK VINA RESULT:      -8.0      4.342      9.354
REMARK  5 active torsions:
REMARK  status: ('A' for Active; 'I' for Inactive)
REMARK    1  A    between atoms: N_4  and  C_5 
REMARK    2  A    between atoms: C_5  and  C_6 
REMARK    3  A    between atoms: C_6  and  N_7 
REMARK    4  A    between atoms: C_11  and  N_12 
REMARK    5  A    between atoms: C_15  and  C_16 
REMARK       I    between atoms: C_16  and  N_18 
ROOT
HETATM    1  N   UNK N   1      38.888  37.964  53.018  0.00  0.00    -0.284 N 
HETATM    2  N   UNK N   1      39.775  38.820  52.524  0.00  0.00    -0.292 N 
ATOM      3  HN  UNK N   1      40.119  39.654  52.999  1.00  0.00     0.187 HD
HETATM    4  C   UNK N   1      40.149  38.409  51.294  0.00  0.00     0.126 A 
HETATM    5  C   UNK N   1      39.451  37.252  50.981  0.00  0.00     0.019 A 
HETATM    6  C   UNK N   1      38.695  36.949  52.121  0.00  0.00     0.072 A 
HETATM    7  C   UNK N   1      37.847  35.692  52.285  0.00  0.00     0.014 A 
HETATM    8  C   UNK N   1      37.509  35.153  53.550  0.00  0.00     0.015 A 
HETATM    9  C   UNK N   1      36.744  33.987  53.654  0.00  0.00     0.001 A 
HETATM   10  C   UNK N   1      36.314  33.322  52.509  0.00  0.00     0.002 A 
HETATM   11  C   UNK N   1      36.674  33.802  51.253  0.00  0.00     0.024 A 
HETATM   12  C   UNK N   1      37.447  34.964  51.143  0.00  0.00     0.072 A 
HETATM   13  S   UNK N   1      37.993  35.521  49.558  0.00  0.00     0.180 S 
HETATM   14  O   UNK N   1      36.866  36.324  48.892  0.00  0.00    -0.222 OA
HETATM   15  O   UNK N   1      38.177  34.347  48.585  0.00  0.00    -0.222 OA
HETATM   16  C   UNK N   1      39.482  36.525  49.660  0.00  0.00     0.189 C 
ENDROOT
BRANCH   1  17
HETATM   17  C   UNK N   1      38.178  38.217  54.289  0.00  0.00     0.137 C 
HETATM   18  C   UNK N   1      38.905  37.581  55.480  0.00  0.00     0.031 C 
HETATM   19  C   UNK N   1      40.169  38.350  55.893  0.00  0.00     0.032 C 
HETATM   20  C   UNK N   1      40.029  39.878  55.709  0.00  0.00     0.272 C 
HETATM   21  N   UNK N   1      38.634  40.343  55.667  0.00  0.00     0.092 N 
HETATM   22  C   UNK N   1      37.895  39.741  54.523  0.00  0.00     0.299 C 
BRANCH  21  23
HETATM   23  C   UNK N   1      37.915  40.286  56.959  0.00  0.00     0.291 C 
BRANCH  23  24
HETATM   24  C   UNK N   1      37.038  41.542  57.129  0.00  0.00     0.147 C 
BRANCH  24  25
HETATM   25  N   UNK N   1      37.711  42.812  56.777  0.00  0.00    -0.406 N 
HETATM   26  C   UNK N   1      38.337  43.585  57.863  0.00  0.00     0.148 C 
HETATM   27  C   UNK N   1      37.357  44.646  58.450  0.00  0.00     0.135 C 
HETATM   28  C   UNK N   1      38.125  45.710  59.236  0.00  0.00     0.041 C 
HETATM   29  O   UNK N   1      36.517  45.282  57.486  0.00  0.00    -0.383 OA
HETATM   30  C   UNK N   1      36.998  45.135  56.168  0.00  0.00     0.187 C 
HETATM   31  C   UNK N   1      37.007  43.647  55.773  0.00  0.00     0.143 C 
ENDBRANCH  24  25
ENDBRANCH  23  24
ENDBRANCH  21  23
ENDBRANCH   1  17
BRANCH   4  32
HETATM   32  C   UNK N   1      41.160  39.093  50.416  0.00  0.00     0.272 C 
HETATM   33  O   UNK N   1      40.824  40.145  49.885  0.00  0.00    -0.266 OA
HETATM   34  N   UNK N   1      42.424  38.600  50.171  0.00  0.00    -0.343 N 
HETATM   35  C   UNK N   1      43.252  39.280  49.164  0.00  0.00     0.152 C 
HETATM   36  C   UNK N   1      42.875  37.348  50.783  0.00  0.00     0.152 C 
HETATM   37  C   UNK N   1      44.683  38.742  49.069  0.00  0.00     0.187 C 
HETATM   38  O   UNK N   1      44.698  37.337  49.201  0.00  0.00    -0.388 OA
HETATM   39  C   UNK N   1      44.357  37.056  50.542  0.00  0.00     0.187 C 
ENDBRANCH   4  32
TORSDOF 5
ENDMDL
MODEL 9
REMARK VINA RESULT:      -7.8      3.752      7.061
REMARK  5 active torsions:
REMARK  status: ('A' for Active; 'I' for Inactive)
REMARK    1  A    between atoms: N_4  and  C_5 
REMARK    2  A    between atoms: C_5  and  C_6 
REMARK    3  A    between atoms: C_6  and  N_7 
REMARK    4  A    between atoms: C_11  and  N_12 
REMARK    5  A    between atoms: C_15  and  C_16 
REMARK       I    between atoms: C_16  and  N_18 
ROOT
HETATM    1  N   UNK N   1      39.095  38.137  53.276  0.00  0.00    -0.284 N 
HETATM    2  N   UNK N   1      39.479  38.182  52.006  0.00  0.00    -0.292 N 
ATOM      3  HN  UNK N   1      39.066  37.644  51.245  1.00  0.00     0.187 HD
HETATM    4  C   UNK N   1      40.501  39.055  51.882  0.00  0.00     0.126 A 
HETATM    5  C   UNK N   1      40.797  39.571  53.135  0.00  0.00     0.019 A 
HETATM    6  C   UNK N   1      39.847  39.017  54.004  0.00  0.00     0.072 A 
HETATM    7  C   UNK N   1      39.709  39.384  55.478  0.00  0.00     0.014 A 
HETATM    8  C   UNK N   1      38.500  39.227  56.199  0.00  0.00     0.015 A 
HETATM    9  C   UNK N   1      38.414  39.593  57.546  0.00  0.00     0.001 A 
HETATM   10  C   UNK N   1      39.515  40.138  58.200  0.00  0.00     0.002 A 
HETATM   11  C   UNK N   1      40.700  40.350  57.503  0.00  0.00     0.024 A 
HETATM   12  C   UNK N   1      40.791  39.993  56.152  0.00  0.00     0.072 A 
HETATM   13  S   UNK N   1      42.256  40.352  55.234  0.00  0.00     0.180 S 
HETATM   14  O   UNK N   1      43.295  39.251  55.495  0.00  0.00    -0.222 OA
HETATM   15  O   UNK N   1      42.964  41.603  55.777  0.00  0.00    -0.222 OA
HETATM   16  C   UNK N   1      41.943  40.493  53.469  0.00  0.00     0.189 C 
ENDROOT
BRANCH   1  17
HETATM   17  C   UNK N   1      38.093  37.164  53.758  0.00  0.00     0.137 C 
HETATM   18  C   UNK N   1      36.701  37.796  53.876  0.00  0.00     0.031 C 
HETATM   19  C   UNK N   1      36.020  38.006  52.515  0.00  0.00     0.032 C 
HETATM   20  C   UNK N   1      36.358  36.895  51.496  0.00  0.00     0.272 C 
HETATM   21  N   UNK N   1      36.818  35.643  52.117  0.00  0.00     0.092 N 
HETATM   22  C   UNK N   1      38.070  35.853  52.897  0.00  0.00     0.299 C 
BRANCH  21  23
HETATM   23  C   UNK N   1      35.774  34.875  52.830  0.00  0.00     0.291 C 
BRANCH  23  24
HETATM   24  C   UNK N   1      36.151  33.381  52.865  0.00  0.00     0.147 C 
BRANCH  24  25
HETATM   25  N   UNK N   1      36.282  32.813  54.225  0.00  0.00    -0.406 N 
HETATM   26  C   UNK N   1      36.322  33.748  55.363  0.00  0.00     0.148 C 
HETATM   27  C   UNK N   1      37.785  34.134  55.737  0.00  0.00     0.135 C 
HETATM   28  C   UNK N   1      37.841  34.722  57.147  0.00  0.00     0.041 C 
HETATM   29  O   UNK N   1      38.731  33.068  55.629  0.00  0.00    -0.383 OA
HETATM   30  C   UNK N   1      38.114  31.799  55.599  0.00  0.00     0.187 C 
HETATM   31  C   UNK N   1      37.224  31.673  54.350  0.00  0.00     0.143 C 
ENDBRANCH  24  25
ENDBRANCH  23  24
ENDBRANCH  21  23
ENDBRANCH   1  17
BRANCH   4  32
HETATM   32  C   UNK N   1      41.195  39.410  50.597  0.00  0.00     0.272 C 
HETATM   33  O   UNK N   1      40.623  40.189  49.845  0.00  0.00    -0.266 OA
HETATM   34  N   UNK N   1      42.421  38.903  50.221  0.00  0.00    -0.343 N 
HETATM   35  C   UNK N   1      42.911  39.202  48.867  0.00  0.00     0.152 C 
HETATM   36  C   UNK N   1      43.148  37.970  51.085  0.00  0.00     0.152 C 
HETATM   37  C   UNK N   1      44.337  38.713  48.599  0.00  0.00     0.187 C 
HETATM   38  O   UNK N   1      44.552  37.451  49.192  0.00  0.00    -0.388 OA
HETATM   39  C   UNK N   1      44.560  37.659  50.588  0.00  0.00     0.187 C 
ENDBRANCH   4  32
TORSDOF 5
ENDMDL
