MODEL 1
REMARK VINA RESULT:      -8.8      0.000      0.000
REMARK  5 active torsions:
REMARK  status: ('A' for Active; 'I' for Inactive)
REMARK    1  A    between atoms: C_2  and  C_3 
REMARK       I    between atoms: C_2  and  N_33 
REMARK    2  A    between atoms: N_6  and  C_7 
REMARK    3  A    between atoms: N_11  and  C_12 
REMARK    4  A    between atoms: C_12  and  C_13 
REMARK    5  A    between atoms: C_13  and  C_14 
ROOT
HETATM    1  C   UNK N   1      38.495  33.373  44.163  0.00  0.00     0.126 A 
HETATM    2  N   UNK N   1      39.661  33.203  44.806  0.00  0.00    -0.292 N 
ATOM      3  HN  UNK N   1      39.764  33.130  45.818  1.00  0.00     0.187 HD
HETATM    4  N   UNK N   1      40.659  33.144  43.931  0.00  0.00    -0.284 N 
HETATM    5  C   UNK N   1      40.139  33.292  42.666  0.00  0.00     0.072 A 
HETATM    6  C   UNK N   1      38.749  33.451  42.807  0.00  0.00     0.019 A 
HETATM    7  C   UNK N   1      37.763  33.728  41.705  0.00  0.00     0.189 C 
HETATM    8  S   UNK N   1      38.613  34.848  40.600  0.00  0.00     0.180 S 
HETATM    9  O   UNK N   1      37.824  35.091  39.305  0.00  0.00    -0.222 OA
HETATM   10  O   UNK N   1      38.748  36.250  41.214  0.00  0.00    -0.222 OA
HETATM   11  C   UNK N   1      40.214  34.155  40.283  0.00  0.00     0.072 A 
HETATM   12  C   UNK N   1      40.820  34.316  39.033  0.00  0.00     0.024 A 
HETATM   13  C   UNK N   1      42.055  33.727  38.778  0.00  0.00     0.002 A 
HETATM   14  C   UNK N   1      42.678  32.969  39.766  0.00  0.00     0.001 A 
HETATM   15  C   UNK N   1      42.080  32.811  41.021  0.00  0.00     0.015 A 
HETATM   16  C   UNK N   1      40.842  33.411  41.317  0.00  0.00     0.014 A 
ENDROOT
BRANCH   4  17
HETATM   17  C   UNK N   1      42.037  33.057  44.463  0.00  0.00     0.137 C 
HETATM   18  C   UNK N   1      42.791  31.767  44.088  0.00  0.00     0.031 C 
HETATM   19  C   UNK N   1      44.235  31.852  44.595  0.00  0.00     0.032 C 
HETATM   20  C   UNK N   1      44.255  32.168  46.098  0.00  0.00     0.272 C 
HETATM   21  N   UNK N   1      43.580  33.460  46.342  0.00  0.00     0.090 N 
HETATM   22  C   UNK N   1      42.153  33.432  45.953  0.00  0.00     0.299 C 
BRANCH  21  23
HETATM   23  C   UNK N   1      43.796  34.014  47.697  0.00  0.00     0.273 C 
BRANCH  23  24
HETATM   24  C   UNK N   1      42.787  33.513  48.756  0.00  0.00     0.035 C 
BRANCH  24  25
HETATM   25  C   UNK N   1      42.123  34.677  49.518  0.00  0.00    -0.009 C 
HETATM   26  C   UNK N   1      40.676  34.911  49.077  0.00  0.00     0.031 C 
HETATM   27  C   UNK N   1      40.089  36.017  50.003  0.00  0.00     0.168 C 
HETATM   28  O   UNK N   1      40.964  37.114  50.288  0.00  0.00    -0.391 OA
HETATM   29  C   UNK N   1      41.985  37.233  49.323  0.00  0.00     0.168 C 
HETATM   30  C   UNK N   1      42.917  36.004  49.342  0.00  0.00     0.031 C 
ENDBRANCH  24  25
ENDBRANCH  23  24
ENDBRANCH  21  23
ENDBRANCH   4  17
BRANCH   1  31
HETATM   31  C   UNK N   1      37.148  33.411  44.824  0.00  0.00     0.272 C 
HETATM   32  O   UNK N   1      36.750  34.495  45.232  0.00  0.00    -0.266 OA
HETATM   33  N   UNK N   1      36.343  32.302  44.988  0.00  0.00    -0.343 N 
HETATM   34  C   UNK N   1      36.844  30.954  44.684  0.00  0.00     0.152 C 
HETATM   35  C   UNK N   1      35.055  32.487  45.671  0.00  0.00     0.152 C 
HETATM   36  C   UNK N   1      35.833  29.836  44.970  0.00  0.00     0.187 C 
HETATM   37  O   UNK N   1      35.070  30.124  46.121  0.00  0.00    -0.388 OA
HETATM   38  C   UNK N   1      34.230  31.208  45.782  0.00  0.00     0.187 C 
ENDBRANCH   1  31
TORSDOF 5
ENDMDL
MODEL 2
REMARK VINA RESULT:      -8.4      5.870     10.860
REMARK  5 active torsions:
REMARK  status: ('A' for Active; 'I' for Inactive)
REMARK    1  A    between atoms: C_2  and  C_3 
REMARK       I    between atoms: C_2  and  N_33 
REMARK    2  A    between atoms: N_6  and  C_7 
REMARK    3  A    between atoms: N_11  and  C_12 
REMARK    4  A    between atoms: C_12  and  C_13 
REMARK    5  A    between atoms: C_13  and  C_14 
ROOT
HETATM    1  C   UNK N   1      38.731  38.669  52.566  0.00  0.00     0.126 A 
HETATM    2  N   UNK N   1      39.431  38.083  51.582  0.00  0.00    -0.292 N 
ATOM      3  HN  UNK N   1      39.022  37.572  50.799  1.00  0.00     0.187 HD
HETATM    4  N   UNK N   1      40.732  38.267  51.776  0.00  0.00    -0.284 N 
HETATM    5  C   UNK N   1      40.901  38.989  52.936  0.00  0.00     0.072 A 
HETATM    6  C   UNK N   1      39.620  39.242  53.455  0.00  0.00     0.019 A 
HETATM    7  C   UNK N   1      39.300  39.928  54.755  0.00  0.00     0.189 C 
HETATM    8  S   UNK N   1      40.554  39.358  55.895  0.00  0.00     0.180 S 
HETATM    9  O   UNK N   1      40.502  40.109  57.233  0.00  0.00    -0.222 OA
HETATM   10  O   UNK N   1      40.330  37.890  56.290  0.00  0.00    -0.222 OA
HETATM   11  C   UNK N   1      42.121  39.548  55.087  0.00  0.00     0.072 A 
HETATM   12  C   UNK N   1      43.261  39.885  55.823  0.00  0.00     0.024 A 
HETATM   13  C   UNK N   1      44.476  40.081  55.173  0.00  0.00     0.002 A 
HETATM   14  C   UNK N   1      44.549  39.950  53.789  0.00  0.00     0.001 A 
HETATM   15  C   UNK N   1      43.414  39.605  53.048  0.00  0.00     0.015 A 
HETATM   16  C   UNK N   1      42.176  39.381  53.677  0.00  0.00     0.014 A 
ENDROOT
BRANCH   4  17
HETATM   17  C   UNK N   1      41.670  37.606  50.841  0.00  0.00     0.137 C 
HETATM   18  C   UNK N   1      42.324  38.548  49.812  0.00  0.00     0.031 C 
HETATM   19  C   UNK N   1      43.353  37.769  48.987  0.00  0.00     0.032 C 
HETATM   20  C   UNK N   1      42.706  36.523  48.364  0.00  0.00     0.272 C 
HETATM   21  N   UNK N   1      42.183  35.648  49.435  0.00  0.00     0.090 N 
HETATM   22  C   UNK N   1      41.120  36.303  50.228  0.00  0.00     0.299 C 
BRANCH  21  23
HETATM   23  C   UNK N   1      41.810  34.289  48.984  0.00  0.00     0.273 C 
BRANCH  23  24
HETATM   24  C   UNK N   1      42.971  33.269  49.015  0.00  0.00     0.035 C 
BRANCH  24  25
HETATM   25  C   UNK N   1      43.439  32.884  47.597  0.00  0.00    -0.009 C 
HETATM   26  C   UNK N   1      44.755  33.566  47.213  0.00  0.00     0.031 C 
HETATM   27  C   UNK N   1      45.176  32.999  45.826  0.00  0.00     0.168 C 
HETATM   28  O   UNK N   1      44.117  32.841  44.875  0.00  0.00    -0.391 OA
HETATM   29  C   UNK N   1      43.008  33.654  45.187  0.00  0.00     0.168 C 
HETATM   30  C   UNK N   1      42.367  33.234  46.525  0.00  0.00     0.031 C 
ENDBRANCH  24  25
ENDBRANCH  23  24
ENDBRANCH  21  23
ENDBRANCH   4  17
BRANCH   1  31
HETATM   31  C   UNK N   1      37.233  38.727  52.636  0.00  0.00     0.272 C 
HETATM   32  O   UNK N   1      36.688  39.739  52.214  0.00  0.00    -0.266 OA
HETATM   33  N   UNK N   1      36.449  37.709  53.139  0.00  0.00    -0.343 N 
HETATM   34  C   UNK N   1      37.054  36.557  53.822  0.00  0.00     0.152 C 
HETATM   35  C   UNK N   1      34.993  37.914  53.161  0.00  0.00     0.152 C 
HETATM   36  C   UNK N   1      36.034  35.546  54.360  0.00  0.00     0.187 C 
HETATM   37  O   UNK N   1      34.880  36.199  54.844  0.00  0.00    -0.388 OA
HETATM   38  C   UNK N   1      34.215  36.724  53.714  0.00  0.00     0.187 C 
ENDBRANCH   1  31
TORSDOF 5
ENDMDL
MODEL 3
REMARK VINA RESULT:      -8.3      7.717     10.155
REMARK  5 active torsions:
REMARK  status: ('A' for Active; 'I' for Inactive)
REMARK    1  A    between atoms: C_2  and  C_3 
REMARK       I    between atoms: C_2  and  N_33 
REMARK    2  A    between atoms: N_6  and  C_7 
REMARK    3  A    between atoms: N_11  and  C_12 
REMARK    4  A    between atoms: C_12  and  C_13 
REMARK    5  A    between atoms: C_13  and  C_14 
ROOT
HETATM    1  C   UNK N   1      37.470  35.947  52.932  0.00  0.00     0.126 A 
HETATM    2  N   UNK N   1      38.646  35.986  52.286  0.00  0.00    -0.292 N 
ATOM      3  HN  UNK N   1      39.472  35.446  52.544  1.00  0.00     0.187 HD
HETATM    4  N   UNK N   1      38.575  36.828  51.261  0.00  0.00    -0.284 N 
HETATM    5  C   UNK N   1      37.313  37.376  51.234  0.00  0.00     0.072 A 
HETATM    6  C   UNK N   1      36.600  36.823  52.311  0.00  0.00     0.019 A 
HETATM    7  C   UNK N   1      35.202  37.181  52.738  0.00  0.00     0.189 C 
HETATM    8  S   UNK N   1      35.086  38.949  52.493  0.00  0.00     0.180 S 
HETATM    9  O   UNK N   1      33.655  39.467  52.695  0.00  0.00    -0.222 OA
HETATM   10  O   UNK N   1      35.905  39.717  53.542  0.00  0.00    -0.222 OA
HETATM   11  C   UNK N   1      35.693  39.291  50.862  0.00  0.00     0.072 A 
HETATM   12  C   UNK N   1      35.136  40.324  50.102  0.00  0.00     0.024 A 
HETATM   13  C   UNK N   1      35.586  40.553  48.805  0.00  0.00     0.002 A 
HETATM   14  C   UNK N   1      36.583  39.745  48.265  0.00  0.00     0.001 A 
HETATM   15  C   UNK N   1      37.150  38.716  49.024  0.00  0.00     0.015 A 
HETATM   16  C   UNK N   1      36.731  38.471  50.345  0.00  0.00     0.014 A 
ENDROOT
BRANCH   4  17
HETATM   17  C   UNK N   1      39.811  37.077  50.486  0.00  0.00     0.137 C 
HETATM   18  C   UNK N   1      40.266  35.899  49.604  0.00  0.00     0.031 C 
HETATM   19  C   UNK N   1      41.480  36.323  48.770  0.00  0.00     0.032 C 
HETATM   20  C   UNK N   1      42.585  36.879  49.680  0.00  0.00     0.272 C 
HETATM   21  N   UNK N   1      42.074  38.052  50.421  0.00  0.00     0.090 N 
HETATM   22  C   UNK N   1      40.948  37.706  51.316  0.00  0.00     0.299 C 
BRANCH  21  23
HETATM   23  C   UNK N   1      43.120  38.850  51.097  0.00  0.00     0.273 C 
BRANCH  23  24
HETATM   24  C   UNK N   1      44.177  38.007  51.847  0.00  0.00     0.035 C 
BRANCH  24  25
HETATM   25  C   UNK N   1      44.431  38.535  53.273  0.00  0.00    -0.009 C 
HETATM   26  C   UNK N   1      43.573  39.760  53.601  0.00  0.00     0.031 C 
HETATM   27  C   UNK N   1      43.830  40.111  55.096  0.00  0.00     0.168 C 
HETATM   28  O   UNK N   1      45.192  40.023  55.527  0.00  0.00    -0.391 OA
HETATM   29  C   UNK N   1      46.090  40.106  54.443  0.00  0.00     0.168 C 
HETATM   30  C   UNK N   1      45.927  38.905  53.490  0.00  0.00     0.031 C 
ENDBRANCH  24  25
ENDBRANCH  23  24
ENDBRANCH  21  23
ENDBRANCH   4  17
BRANCH   1  31
HETATM   31  C   UNK N   1      37.159  35.052  54.095  0.00  0.00     0.272 C 
HETATM   32  O   UNK N   1      36.455  34.073  53.882  0.00  0.00    -0.266 OA
HETATM   33  N   UNK N   1      37.625  35.269  55.376  0.00  0.00    -0.343 N 
HETATM   34  C   UNK N   1      38.317  36.518  55.725  0.00  0.00     0.152 C 
HETATM   35  C   UNK N   1      37.224  34.316  56.421  0.00  0.00     0.152 C 
HETATM   36  C   UNK N   1      38.723  36.612  57.202  0.00  0.00     0.187 C 
HETATM   37  O   UNK N   1      37.748  36.022  58.035  0.00  0.00    -0.388 OA
HETATM   38  C   UNK N   1      37.808  34.631  57.795  0.00  0.00     0.187 C 
ENDBRANCH   1  31
TORSDOF 5
ENDMDL
MODEL 4
REMARK VINA RESULT:      -8.3      8.241     13.494
REMARK  5 active torsions:
REMARK  status: ('A' for Active; 'I' for Inactive)
REMARK    1  A    between atoms: C_2  and  C_3 
REMARK       I    between atoms: C_2  and  N_33 
REMARK    2  A    between atoms: N_6  and  C_7 
REMARK    3  A    between atoms: N_11  and  C_12 
REMARK    4  A    between atoms: C_12  and  C_13 
REMARK    5  A    between atoms: C_13  and  C_14 
ROOT
HETATM    1  C   UNK N   1      41.862  38.691  52.123  0.00  0.00     0.126 A 
HETATM    2  N   UNK N   1      40.541  38.820  52.327  0.00  0.00    -0.292 N 
ATOM      3  HN  UNK N   1      39.826  38.701  51.609  1.00  0.00     0.187 HD
HETATM    4  N   UNK N   1      40.304  39.124  53.598  0.00  0.00    -0.284 N 
HETATM    5  C   UNK N   1      41.509  39.212  54.257  0.00  0.00     0.072 A 
HETATM    6  C   UNK N   1      42.516  38.945  53.313  0.00  0.00     0.019 A 
HETATM    7  C   UNK N   1      44.001  39.006  53.547  0.00  0.00     0.189 C 
HETATM    8  S   UNK N   1      44.237  40.409  54.630  0.00  0.00     0.180 S 
HETATM    9  O   UNK N   1      45.684  40.510  55.137  0.00  0.00    -0.222 OA
HETATM   10  O   UNK N   1      44.016  41.736  53.889  0.00  0.00    -0.222 OA
HETATM   11  C   UNK N   1      43.078  40.242  55.962  0.00  0.00     0.072 A 
HETATM   12  C   UNK N   1      43.413  40.671  57.250  0.00  0.00     0.024 A 
HETATM   13  C   UNK N   1      42.515  40.491  58.298  0.00  0.00     0.002 A 
HETATM   14  C   UNK N   1      41.289  39.874  58.061  0.00  0.00     0.001 A 
HETATM   15  C   UNK N   1      40.945  39.451  56.773  0.00  0.00     0.015 A 
HETATM   16  C   UNK N   1      41.822  39.636  55.689  0.00  0.00     0.014 A 
ENDROOT
BRANCH   4  17
HETATM   17  C   UNK N   1      38.905  39.403  53.991  0.00  0.00     0.137 C 
HETATM   18  C   UNK N   1      37.841  38.802  53.053  0.00  0.00     0.031 C 
HETATM   19  C   UNK N   1      36.445  39.061  53.631  0.00  0.00     0.032 C 
HETATM   20  C   UNK N   1      36.252  40.559  53.909  0.00  0.00     0.272 C 
HETATM   21  N   UNK N   1      37.268  41.019  54.879  0.00  0.00     0.090 N 
HETATM   22  C   UNK N   1      38.646  40.878  54.359  0.00  0.00     0.299 C 
BRANCH  21  23
HETATM   23  C   UNK N   1      37.004  42.357  55.452  0.00  0.00     0.273 C 
BRANCH  23  24
HETATM   24  C   UNK N   1      37.759  42.642  56.772  0.00  0.00     0.035 C 
BRANCH  24  25
HETATM   25  C   UNK N   1      37.784  44.147  57.107  0.00  0.00    -0.009 C 
HETATM   26  C   UNK N   1      37.381  44.427  58.557  0.00  0.00     0.031 C 
HETATM   27  C   UNK N   1      37.571  45.954  58.798  0.00  0.00     0.168 C 
HETATM   28  O   UNK N   1      37.142  46.806  57.731  0.00  0.00    -0.391 OA
HETATM   29  C   UNK N   1      36.211  46.164  56.890  0.00  0.00     0.168 C 
HETATM   30  C   UNK N   1      36.850  44.961  56.166  0.00  0.00     0.031 C 
ENDBRANCH  24  25
ENDBRANCH  23  24
ENDBRANCH  21  23
ENDBRANCH   4  17
BRANCH   1  31
HETATM   31  C   UNK N   1      42.494  38.281  50.825  0.00  0.00     0.272 C 
HETATM   32  O   UNK N   1      43.425  38.960  50.411  0.00  0.00    -0.266 OA
HETATM   33  N   UNK N   1      42.088  37.188  50.086  0.00  0.00    -0.343 N 
HETATM   34  C   UNK N   1      40.866  36.450  50.439  0.00  0.00     0.152 C 
HETATM   35  C   UNK N   1      42.789  36.918  48.823  0.00  0.00     0.152 C 
HETATM   36  C   UNK N   1      40.539  35.296  49.483  0.00  0.00     0.187 C 
HETATM   37  O   UNK N   1      40.872  35.629  48.152  0.00  0.00    -0.388 OA
HETATM   38  C   UNK N   1      42.282  35.677  48.093  0.00  0.00     0.187 C 
ENDBRANCH   1  31
TORSDOF 5
ENDMDL
MODEL 5
REMARK VINA RESULT:      -8.3      2.986      4.964
REMARK  5 active torsions:
REMARK  status: ('A' for Active; 'I' for Inactive)
REMARK    1  A    between atoms: C_2  and  C_3 
REMARK       I    between atoms: C_2  and  N_33 
REMARK    2  A    between atoms: N_6  and  C_7 
REMARK    3  A    between atoms: N_11  and  C_12 
REMARK    4  A    between atoms: C_12  and  C_13 
REMARK    5  A    between atoms: C_13  and  C_14 
ROOT
HETATM    1  C   UNK N   1      39.067  33.428  45.486  0.00  0.00     0.126 A 
HETATM    2  N   UNK N   1      39.242  34.048  46.664  0.00  0.00    -0.292 N 
ATOM      3  HN  UNK N   1      38.510  34.537  47.181  1.00  0.00     0.187 HD
HETATM    4  N   UNK N   1      40.505  33.930  47.058  0.00  0.00    -0.284 N 
HETATM    5  C   UNK N   1      41.194  33.218  46.102  0.00  0.00     0.072 A 
HETATM    6  C   UNK N   1      40.279  32.901  45.084  0.00  0.00     0.019 A 
HETATM    7  C   UNK N   1      40.588  32.201  43.789  0.00  0.00     0.189 C 
HETATM    8  S   UNK N   1      42.185  32.835  43.294  0.00  0.00     0.180 S 
HETATM    9  O   UNK N   1      42.755  32.083  42.083  0.00  0.00    -0.222 OA
HETATM   10  O   UNK N   1      42.087  34.290  42.809  0.00  0.00    -0.222 OA
HETATM   11  C   UNK N   1      43.252  32.724  44.706  0.00  0.00     0.072 A 
HETATM   12  C   UNK N   1      44.613  32.446  44.545  0.00  0.00     0.024 A 
HETATM   13  C   UNK N   1      45.432  32.312  45.662  0.00  0.00     0.002 A 
HETATM   14  C   UNK N   1      44.890  32.445  46.938  0.00  0.00     0.001 A 
HETATM   15  C   UNK N   1      43.532  32.732  47.105  0.00  0.00     0.015 A 
HETATM   16  C   UNK N   1      42.681  32.893  45.996  0.00  0.00     0.014 A 
ENDROOT
BRANCH   4  17
HETATM   17  C   UNK N   1      40.911  34.637  48.293  0.00  0.00     0.137 C 
HETATM   18  C   UNK N   1      39.746  35.217  49.116  0.00  0.00     0.031 C 
HETATM   19  C   UNK N   1      40.288  35.816  50.418  0.00  0.00     0.032 C 
HETATM   20  C   UNK N   1      41.400  36.831  50.117  0.00  0.00     0.272 C 
HETATM   21  N   UNK N   1      42.504  36.159  49.399  0.00  0.00     0.090 N 
HETATM   22  C   UNK N   1      42.078  35.624  48.087  0.00  0.00     0.299 C 
BRANCH  21  23
HETATM   23  C   UNK N   1      43.751  36.950  49.320  0.00  0.00     0.273 C 
BRANCH  23  24
HETATM   24  C   UNK N   1      44.443  37.183  50.683  0.00  0.00     0.035 C 
BRANCH  24  25
HETATM   25  C   UNK N   1      45.750  37.989  50.536  0.00  0.00    -0.009 C 
HETATM   26  C   UNK N   1      46.781  37.271  49.662  0.00  0.00     0.031 C 
HETATM   27  C   UNK N   1      47.990  38.239  49.492  0.00  0.00     0.168 C 
HETATM   28  O   UNK N   1      48.383  38.949  50.671  0.00  0.00    -0.391 OA
HETATM   29  C   UNK N   1      47.937  38.305  51.844  0.00  0.00     0.168 C 
HETATM   30  C   UNK N   1      46.396  38.290  51.920  0.00  0.00     0.031 C 
ENDBRANCH  24  25
ENDBRANCH  23  24
ENDBRANCH  21  23
ENDBRANCH   4  17
BRANCH   1  31
HETATM   31  C   UNK N   1      37.752  33.293  44.775  0.00  0.00     0.272 C 
HETATM   32  O   UNK N   1      37.613  33.909  43.726  0.00  0.00    -0.266 OA
HETATM   33  N   UNK N   1      36.709  32.515  45.233  0.00  0.00    -0.343 N 
HETATM   34  C   UNK N   1      36.753  31.903  46.569  0.00  0.00     0.152 C 
HETATM   35  C   UNK N   1      35.472  32.493  44.439  0.00  0.00     0.152 C 
HETATM   36  C   UNK N   1      35.490  31.113  46.934  0.00  0.00     0.187 C 
HETATM   37  O   UNK N   1      34.334  31.739  46.420  0.00  0.00    -0.388 OA
HETATM   38  C   UNK N   1      34.388  31.587  45.017  0.00  0.00     0.187 C 
ENDBRANCH   1  31
TORSDOF 5
ENDMDL
MODEL 6
REMARK VINA RESULT:      -8.1      4.621      8.856
REMARK  5 active torsions:
REMARK  status: ('A' for Active; 'I' for Inactive)
REMARK    1  A    between atoms: C_2  and  C_3 
REMARK       I    between atoms: C_2  and  N_33 
REMARK    2  A    between atoms: N_6  and  C_7 
REMARK    3  A    between atoms: N_11  and  C_12 
REMARK    4  A    between atoms: C_12  and  C_13 
REMARK    5  A    between atoms: C_13  and  C_14 
ROOT
HETATM    1  C   UNK N   1      40.069  35.020  48.501  0.00  0.00     0.126 A 
HETATM    2  N   UNK N   1      40.706  35.928  49.256  0.00  0.00    -0.292 N 
ATOM      3  HN  UNK N   1      41.686  36.192  49.150  1.00  0.00     0.187 HD
HETATM    4  N   UNK N   1      39.874  36.434  50.160  0.00  0.00    -0.284 N 
HETATM    5  C   UNK N   1      38.646  35.831  50.007  0.00  0.00     0.072 A 
HETATM    6  C   UNK N   1      38.766  34.913  48.950  0.00  0.00     0.019 A 
HETATM    7  C   UNK N   1      37.708  33.958  48.468  0.00  0.00     0.189 C 
HETATM    8  S   UNK N   1      36.882  33.402  49.954  0.00  0.00     0.180 S 
HETATM    9  O   UNK N   1      35.635  32.563  49.641  0.00  0.00    -0.222 OA
HETATM   10  O   UNK N   1      37.770  32.448  50.768  0.00  0.00    -0.222 OA
HETATM   11  C   UNK N   1      36.490  34.846  50.906  0.00  0.00     0.072 A 
HETATM   12  C   UNK N   1      35.321  34.893  51.671  0.00  0.00     0.024 A 
HETATM   13  C   UNK N   1      34.997  36.049  52.376  0.00  0.00     0.002 A 
HETATM   14  C   UNK N   1      35.835  37.159  52.306  0.00  0.00     0.001 A 
HETATM   15  C   UNK N   1      37.010  37.115  51.549  0.00  0.00     0.015 A 
HETATM   16  C   UNK N   1      37.375  35.955  50.842  0.00  0.00     0.014 A 
ENDROOT
BRANCH   4  17
HETATM   17  C   UNK N   1      40.426  37.385  51.151  0.00  0.00     0.137 C 
HETATM   18  C   UNK N   1      39.694  38.738  51.221  0.00  0.00     0.031 C 
HETATM   19  C   UNK N   1      40.284  39.580  52.358  0.00  0.00     0.032 C 
HETATM   20  C   UNK N   1      41.806  39.706  52.195  0.00  0.00     0.272 C 
HETATM   21  N   UNK N   1      42.421  38.361  52.221  0.00  0.00     0.090 N 
HETATM   22  C   UNK N   1      41.962  37.512  51.100  0.00  0.00     0.299 C 
BRANCH  21  23
HETATM   23  C   UNK N   1      43.892  38.366  52.375  0.00  0.00     0.273 C 
BRANCH  23  24
HETATM   24  C   UNK N   1      44.645  37.549  51.299  0.00  0.00     0.035 C 
BRANCH  24  25
HETATM   25  C   UNK N   1      45.973  38.218  50.892  0.00  0.00    -0.009 C 
HETATM   26  C   UNK N   1      46.754  37.387  49.870  0.00  0.00     0.031 C 
HETATM   27  C   UNK N   1      47.997  38.226  49.452  0.00  0.00     0.168 C 
HETATM   28  O   UNK N   1      48.666  38.912  50.516  0.00  0.00    -0.391 OA
HETATM   29  C   UNK N   1      48.382  38.335  51.771  0.00  0.00     0.168 C 
HETATM   30  C   UNK N   1      46.887  38.475  52.124  0.00  0.00     0.031 C 
ENDBRANCH  24  25
ENDBRANCH  23  24
ENDBRANCH  21  23
ENDBRANCH   4  17
BRANCH   1  31
HETATM   31  C   UNK N   1      40.675  34.297  47.334  0.00  0.00     0.272 C 
HETATM   32  O   UNK N   1      40.079  34.349  46.266  0.00  0.00    -0.266 OA
HETATM   33  N   UNK N   1      41.859  33.590  47.401  0.00  0.00    -0.343 N 
HETATM   34  C   UNK N   1      42.518  33.343  48.691  0.00  0.00     0.152 C 
HETATM   35  C   UNK N   1      42.323  32.916  46.180  0.00  0.00     0.152 C 
HETATM   36  C   UNK N   1      43.797  32.501  48.585  0.00  0.00     0.187 C 
HETATM   37  O   UNK N   1      43.668  31.507  47.591  0.00  0.00    -0.388 OA
HETATM   38  C   UNK N   1      43.651  32.183  46.351  0.00  0.00     0.187 C 
ENDBRANCH   1  31
TORSDOF 5
ENDMDL
MODEL 7
REMARK VINA RESULT:      -8.1      5.900     10.767
REMARK  5 active torsions:
REMARK  status: ('A' for Active; 'I' for Inactive)
REMARK    1  A    between atoms: C_2  and  C_3 
REMARK       I    between atoms: C_2  and  N_33 
REMARK    2  A    between atoms: N_6  and  C_7 
REMARK    3  A    between atoms: N_11  and  C_12 
REMARK    4  A    between atoms: C_12  and  C_13 
REMARK    5  A    between atoms: C_13  and  C_14 
ROOT
HETATM    1  C   UNK N   1      40.143  39.531  53.090  0.00  0.00     0.126 A 
HETATM    2  N   UNK N   1      39.434  38.725  52.284  0.00  0.00    -0.292 N 
ATOM      3  HN  UNK N   1      38.449  38.491  52.412  1.00  0.00     0.187 HD
HETATM    4  N   UNK N   1      40.202  38.279  51.297  0.00  0.00    -0.284 N 
HETATM    5  C   UNK N   1      41.467  38.796  51.461  0.00  0.00     0.072 A 
HETATM    6  C   UNK N   1      41.440  39.594  52.617  0.00  0.00     0.019 A 
HETATM    7  C   UNK N   1      42.610  40.300  53.246  0.00  0.00     0.189 C 
HETATM    8  S   UNK N   1      43.984  39.172  53.055  0.00  0.00     0.180 S 
HETATM    9  O   UNK N   1      45.317  39.811  53.468  0.00  0.00    -0.222 OA
HETATM   10  O   UNK N   1      43.852  37.961  53.992  0.00  0.00    -0.222 OA
HETATM   11  C   UNK N   1      43.996  38.645  51.361  0.00  0.00     0.072 A 
HETATM   12  C   UNK N   1      45.206  38.388  50.709  0.00  0.00     0.024 A 
HETATM   13  C   UNK N   1      45.208  38.024  49.366  0.00  0.00     0.002 A 
HETATM   14  C   UNK N   1      44.003  37.926  48.673  0.00  0.00     0.001 A 
HETATM   15  C   UNK N   1      42.790  38.173  49.323  0.00  0.00     0.015 A 
HETATM   16  C   UNK N   1      42.753  38.525  50.685  0.00  0.00     0.014 A 
ENDROOT
BRANCH   4  17
HETATM   17  C   UNK N   1      39.618  37.295  50.359  0.00  0.00     0.137 C 
HETATM   18  C   UNK N   1      38.155  36.912  50.656  0.00  0.00     0.031 C 
HETATM   19  C   UNK N   1      37.635  35.984  49.553  0.00  0.00     0.032 C 
HETATM   20  C   UNK N   1      38.570  34.777  49.385  0.00  0.00     0.272 C 
HETATM   21  N   UNK N   1      39.925  35.246  49.023  0.00  0.00     0.090 N 
HETATM   22  C   UNK N   1      40.531  36.084  50.080  0.00  0.00     0.299 C 
BRANCH  21  23
HETATM   23  C   UNK N   1      40.831  34.180  48.544  0.00  0.00     0.273 C 
BRANCH  23  24
HETATM   24  C   UNK N   1      42.261  34.252  49.129  0.00  0.00     0.035 C 
BRANCH  24  25
HETATM   25  C   UNK N   1      43.325  33.797  48.110  0.00  0.00    -0.009 C 
HETATM   26  C   UNK N   1      42.835  33.918  46.664  0.00  0.00     0.031 C 
HETATM   27  C   UNK N   1      44.037  33.552  45.743  0.00  0.00     0.168 C 
HETATM   28  O   UNK N   1      44.825  32.435  46.168  0.00  0.00    -0.391 OA
HETATM   29  C   UNK N   1      44.112  31.596  47.048  0.00  0.00     0.168 C 
HETATM   30  C   UNK N   1      43.770  32.327  48.362  0.00  0.00     0.031 C 
ENDBRANCH  24  25
ENDBRANCH  23  24
ENDBRANCH  21  23
ENDBRANCH   4  17
BRANCH   1  31
HETATM   31  C   UNK N   1      39.583  40.274  54.268  0.00  0.00     0.272 C 
HETATM   32  O   UNK N   1      39.195  41.420  54.080  0.00  0.00    -0.266 OA
HETATM   33  N   UNK N   1      39.480  39.736  55.535  0.00  0.00    -0.343 N 
HETATM   34  C   UNK N   1      40.094  38.440  55.857  0.00  0.00     0.152 C 
HETATM   35  C   UNK N   1      38.927  40.589  56.597  0.00  0.00     0.152 C 
HETATM   36  C   UNK N   1      39.923  38.017  57.322  0.00  0.00     0.187 C 
HETATM   37  O   UNK N   1      39.999  39.133  58.184  0.00  0.00    -0.388 OA
HETATM   38  C   UNK N   1      38.833  39.895  57.953  0.00  0.00     0.187 C 
ENDBRANCH   1  31
TORSDOF 5
ENDMDL
MODEL 8
REMARK VINA RESULT:      -8.0      2.062      2.588
REMARK  5 active torsions:
REMARK  status: ('A' for Active; 'I' for Inactive)
REMARK    1  A    between atoms: C_2  and  C_3 
REMARK       I    between atoms: C_2  and  N_33 
REMARK    2  A    between atoms: N_6  and  C_7 
REMARK    3  A    between atoms: N_11  and  C_12 
REMARK    4  A    between atoms: C_12  and  C_13 
REMARK    5  A    between atoms: C_13  and  C_14 
ROOT
HETATM    1  C   UNK N   1      38.090  32.871  45.475  0.00  0.00     0.126 A 
HETATM    2  N   UNK N   1      39.214  33.156  46.153  0.00  0.00    -0.292 N 
ATOM      3  HN  UNK N   1      39.277  33.244  47.167  1.00  0.00     0.187 HD
HETATM    4  N   UNK N   1      40.229  33.304  45.309  0.00  0.00    -0.284 N 
HETATM    5  C   UNK N   1      39.761  33.124  44.028  0.00  0.00     0.072 A 
HETATM    6  C   UNK N   1      38.385  32.856  44.125  0.00  0.00     0.019 A 
HETATM    7  C   UNK N   1      37.426  32.672  42.981  0.00  0.00     0.189 C 
HETATM    8  S   UNK N   1      37.950  33.855  41.748  0.00  0.00     0.180 S 
HETATM    9  O   UNK N   1      37.199  33.676  40.420  0.00  0.00    -0.222 OA
HETATM   10  O   UNK N   1      37.611  35.294  42.168  0.00  0.00    -0.222 OA
HETATM   11  C   UNK N   1      39.702  33.664  41.551  0.00  0.00     0.072 A 
HETATM   12  C   UNK N   1      40.298  33.851  40.300  0.00  0.00     0.024 A 
HETATM   13  C   UNK N   1      41.667  33.651  40.146  0.00  0.00     0.002 A 
HETATM   14  C   UNK N   1      42.436  33.254  41.238  0.00  0.00     0.001 A 
HETATM   15  C   UNK N   1      41.846  33.075  42.493  0.00  0.00     0.015 A 
HETATM   16  C   UNK N   1      40.469  33.288  42.686  0.00  0.00     0.014 A 
ENDROOT
BRANCH   4  17
HETATM   17  C   UNK N   1      41.535  33.719  45.868  0.00  0.00     0.137 C 
HETATM   18  C   UNK N   1      42.670  32.694  45.682  0.00  0.00     0.031 C 
HETATM   19  C   UNK N   1      43.986  33.289  46.195  0.00  0.00     0.032 C 
HETATM   20  C   UNK N   1      43.823  33.778  47.642  0.00  0.00     0.272 C 
HETATM   21  N   UNK N   1      42.770  34.814  47.700  0.00  0.00     0.090 N 
HETATM   22  C   UNK N   1      41.445  34.292  47.296  0.00  0.00     0.299 C 
BRANCH  21  23
HETATM   23  C   UNK N   1      42.727  35.571  48.970  0.00  0.00     0.273 C 
BRANCH  23  24
HETATM   24  C   UNK N   1      43.407  36.958  48.905  0.00  0.00     0.035 C 
BRANCH  24  25
HETATM   25  C   UNK N   1      44.479  37.127  50.000  0.00  0.00    -0.009 C 
HETATM   26  C   UNK N   1      44.170  38.293  50.943  0.00  0.00     0.031 C 
HETATM   27  C   UNK N   1      45.250  38.273  52.065  0.00  0.00     0.168 C 
HETATM   28  O   UNK N   1      46.588  38.006  51.629  0.00  0.00    -0.391 OA
HETATM   29  C   UNK N   1      46.757  38.283  50.257  0.00  0.00     0.168 C 
HETATM   30  C   UNK N   1      45.894  37.346  49.388  0.00  0.00     0.031 C 
ENDBRANCH  24  25
ENDBRANCH  23  24
ENDBRANCH  21  23
ENDBRANCH   4  17
BRANCH   1  31
HETATM   31  C   UNK N   1      36.762  32.567  46.104  0.00  0.00     0.272 C 
HETATM   32  O   UNK N   1      36.059  33.517  46.423  0.00  0.00    -0.266 OA
HETATM   33  N   UNK N   1      36.297  31.288  46.333  0.00  0.00    -0.343 N 
HETATM   34  C   UNK N   1      37.170  30.122  46.140  0.00  0.00     0.152 C 
HETATM   35  C   UNK N   1      34.983  31.143  46.975  0.00  0.00     0.152 C 
HETATM   36  C   UNK N   1      36.506  28.783  46.486  0.00  0.00     0.187 C 
HETATM   37  O   UNK N   1      35.646  28.916  47.598  0.00  0.00    -0.388 OA
HETATM   38  C   UNK N   1      34.549  29.692  47.163  0.00  0.00     0.187 C 
ENDBRANCH   1  31
TORSDOF 5
ENDMDL
MODEL 9
REMARK VINA RESULT:      -7.9      8.633     11.051
REMARK  5 active torsions:
REMARK  status: ('A' for Active; 'I' for Inactive)
REMARK    1  A    between atoms: C_2  and  C_3 
REMARK       I    between atoms: C_2  and  N_33 
REMARK    2  A    between atoms: N_6  and  C_7 
REMARK    3  A    between atoms: N_11  and  C_12 
REMARK    4  A    between atoms: C_12  and  C_13 
REMARK    5  A    between atoms: C_13  and  C_14 
ROOT
HETATM    1  C   UNK N   1      36.251  37.741  52.730  0.00  0.00     0.126 A 
HETATM    2  N   UNK N   1      37.110  38.103  53.696  0.00  0.00    -0.292 N 
ATOM      3  HN  UNK N   1      37.360  39.065  53.924  1.00  0.00     0.187 HD
HETATM    4  N   UNK N   1      37.586  37.025  54.310  0.00  0.00    -0.284 N 
HETATM    5  C   UNK N   1      37.033  35.909  53.723  0.00  0.00     0.072 A 
HETATM    6  C   UNK N   1      36.182  36.361  52.699  0.00  0.00     0.019 A 
HETATM    7  C   UNK N   1      35.420  35.504  51.725  0.00  0.00     0.189 C 
HETATM    8  S   UNK N   1      36.525  34.152  51.342  0.00  0.00     0.180 S 
HETATM    9  O   UNK N   1      35.837  33.064  50.505  0.00  0.00    -0.222 OA
HETATM   10  O   UNK N   1      37.692  34.612  50.456  0.00  0.00    -0.222 OA
HETATM   11  C   UNK N   1      37.131  33.519  52.885  0.00  0.00     0.072 A 
HETATM   12  C   UNK N   1      37.391  32.153  53.036  0.00  0.00     0.024 A 
HETATM   13  C   UNK N   1      37.819  31.659  54.265  0.00  0.00     0.002 A 
HETATM   14  C   UNK N   1      37.977  32.527  55.343  0.00  0.00     0.001 A 
HETATM   15  C   UNK N   1      37.726  33.895  55.194  0.00  0.00     0.015 A 
HETATM   16  C   UNK N   1      37.312  34.428  53.960  0.00  0.00     0.014 A 
ENDROOT
BRANCH   4  17
HETATM   17  C   UNK N   1      38.626  37.223  55.343  0.00  0.00     0.137 C 
HETATM   18  C   UNK N   1      38.120  37.119  56.795  0.00  0.00     0.031 C 
HETATM   19  C   UNK N   1      39.307  37.224  57.759  0.00  0.00     0.032 C 
HETATM   20  C   UNK N   1      40.115  38.498  57.474  0.00  0.00     0.272 C 
HETATM   21  N   UNK N   1      40.623  38.463  56.086  0.00  0.00     0.090 N 
HETATM   22  C   UNK N   1      39.531  38.444  55.088  0.00  0.00     0.299 C 
BRANCH  21  23
HETATM   23  C   UNK N   1      41.656  39.479  55.788  0.00  0.00     0.273 C 
BRANCH  23  24
HETATM   24  C   UNK N   1      42.209  39.418  54.345  0.00  0.00     0.035 C 
BRANCH  24  25
HETATM   25  C   UNK N   1      43.724  39.130  54.319  0.00  0.00    -0.009 C 
HETATM   26  C   UNK N   1      44.559  40.412  54.248  0.00  0.00     0.031 C 
HETATM   27  C   UNK N   1      46.054  39.990  54.356  0.00  0.00     0.168 C 
HETATM   28  O   UNK N   1      46.422  38.823  53.614  0.00  0.00    -0.391 OA
HETATM   29  C   UNK N   1      45.513  38.558  52.569  0.00  0.00     0.168 C 
HETATM   30  C   UNK N   1      44.113  38.217  53.121  0.00  0.00     0.031 C 
ENDBRANCH  24  25
ENDBRANCH  23  24
ENDBRANCH  21  23
ENDBRANCH   4  17
BRANCH   1  31
HETATM   31  C   UNK N   1      35.466  38.695  51.878  0.00  0.00     0.272 C 
HETATM   32  O   UNK N   1      34.344  39.000  52.260  0.00  0.00    -0.266 OA
HETATM   33  N   UNK N   1      35.941  39.244  50.704  0.00  0.00    -0.343 N 
HETATM   34  C   UNK N   1      37.200  38.775  50.108  0.00  0.00     0.152 C 
HETATM   35  C   UNK N   1      35.052  40.151  49.964  0.00  0.00     0.152 C 
HETATM   36  C   UNK N   1      37.552  39.460  48.781  0.00  0.00     0.187 C 
HETATM   37  O   UNK N   1      36.392  39.710  48.016  0.00  0.00    -0.388 OA
HETATM   38  C   UNK N   1      35.677  40.722  48.695  0.00  0.00     0.187 C 
ENDBRANCH   1  31
TORSDOF 5
ENDMDL
