MODEL 1
REMARK VINA RESULT:      -8.1      0.000      0.000
REMARK  5 active torsions:
REMARK  status: ('A' for Active; 'I' for Inactive)
REMARK    1  A    between atoms: C_2  and  C_3 
REMARK       I    between atoms: C_2  and  N_33 
REMARK    2  A    between atoms: N_6  and  C_7 
REMARK    3  A    between atoms: N_10  and  C_11 
REMARK    4  A    between atoms: C_11  and  C_12 
REMARK    5  A    between atoms: C_12  and  N_13 
ROOT
HETATM    1  C   UNK N   1      38.748  38.339  52.018  0.00  0.00     0.126 A 
HETATM    2  N   UNK N   1      39.896  38.210  51.335  0.00  0.00    -0.292 N 
ATOM      3  HN  UNK N   1      39.982  37.816  50.397  1.00  0.00     0.187 HD
HETATM    4  N   UNK N   1      40.898  38.673  52.064  0.00  0.00    -0.285 N 
HETATM    5  C   UNK N   1      40.411  39.103  53.270  0.00  0.00     0.072 A 
HETATM    6  C   UNK N   1      39.019  38.920  53.243  0.00  0.00     0.019 A 
HETATM    7  C   UNK N   1      38.017  39.297  54.301  0.00  0.00     0.189 C 
HETATM    8  S   UNK N   1      38.741  40.677  55.202  0.00  0.00     0.180 S 
HETATM    9  O   UNK N   1      38.023  40.936  56.535  0.00  0.00    -0.222 OA
HETATM   10  O   UNK N   1      38.515  41.990  54.434  0.00  0.00    -0.222 OA
HETATM   11  C   UNK N   1      40.478  40.430  55.428  0.00  0.00     0.072 A 
HETATM   12  C   UNK N   1      41.130  40.941  56.558  0.00  0.00     0.024 A 
HETATM   13  C   UNK N   1      42.483  40.680  56.758  0.00  0.00     0.002 A 
HETATM   14  C   UNK N   1      43.184  39.908  55.837  0.00  0.00     0.001 A 
HETATM   15  C   UNK N   1      42.544  39.409  54.699  0.00  0.00     0.015 A 
HETATM   16  C   UNK N   1      41.174  39.668  54.461  0.00  0.00     0.014 A 
ENDROOT
BRANCH   4  17
HETATM   17  C   UNK N   1      42.256  38.778  51.503  0.00  0.00     0.111 C 
HETATM   18  C   UNK N   1      42.092  39.113  50.000  0.00  0.00     0.057 C 
HETATM   19  C   UNK N   1      43.304  38.669  49.195  0.00  0.00     0.274 C 
HETATM   20  N   UNK N   1      43.504  37.188  49.260  0.00  0.00     0.090 N 
HETATM   21  C   UNK N   1      42.987  36.544  50.503  0.00  0.00     0.274 C 
HETATM   22  C   UNK N   1      43.103  37.488  51.696  0.00  0.00     0.057 C 
BRANCH  20  23
HETATM   23  C   UNK N   1      44.915  36.816  48.982  0.00  0.00     0.302 C 
BRANCH  23  24
HETATM   24  C   UNK N   1      45.888  37.881  49.514  0.00  0.00     0.302 C 
BRANCH  24  25
HETATM   25  N   UNK N   1      46.802  37.344  50.553  0.00  0.00     0.094 N 
HETATM   26  C   UNK N   1      46.860  38.232  51.752  0.00  0.00     0.298 C 
HETATM   27  C   UNK N   1      48.196  38.994  51.877  0.00  0.00     0.198 C 
HETATM   28  O   UNK N   1      48.599  39.482  50.617  0.00  0.00    -0.388 OA
HETATM   29  C   UNK N   1      48.893  38.409  49.719  0.00  0.00     0.198 C 
HETATM   30  C   UNK N   1      48.167  37.076  50.053  0.00  0.00     0.298 C 
ENDBRANCH  24  25
ENDBRANCH  23  24
ENDBRANCH  20  23
ENDBRANCH   4  17
BRANCH   1  31
HETATM   31  C   UNK N   1      37.459  37.783  51.535  0.00  0.00     0.272 C 
HETATM   32  O   UNK N   1      36.752  38.501  50.841  0.00  0.00    -0.266 OA
HETATM   33  N   UNK N   1      36.986  36.556  51.939  0.00  0.00    -0.343 N 
HETATM   34  C   UNK N   1      35.568  36.248  51.808  0.00  0.00     0.152 C 
HETATM   35  C   UNK N   1      37.830  35.525  52.529  0.00  0.00     0.152 C 
HETATM   36  C   UNK N   1      35.244  34.907  52.500  0.00  0.00     0.187 C 
HETATM   37  O   UNK N   1      35.790  34.868  53.814  0.00  0.00    -0.388 OA
HETATM   38  C   UNK N   1      37.204  35.095  53.862  0.00  0.00     0.187 C 
ENDBRANCH   1  31
TORSDOF 5
ENDMDL
MODEL 2
REMARK VINA RESULT:      -7.9      3.304      4.838
REMARK  5 active torsions:
REMARK  status: ('A' for Active; 'I' for Inactive)
REMARK    1  A    between atoms: C_2  and  C_3 
REMARK       I    between atoms: C_2  and  N_33 
REMARK    2  A    between atoms: N_6  and  C_7 
REMARK    3  A    between atoms: N_10  and  C_11 
REMARK    4  A    between atoms: C_11  and  C_12 
REMARK    5  A    between atoms: C_12  and  N_13 
ROOT
HETATM    1  C   UNK N   1      40.289  38.842  54.420  0.00  0.00     0.126 A 
HETATM    2  N   UNK N   1      40.463  38.644  53.104  0.00  0.00    -0.292 N 
ATOM      3  HN  UNK N   1      39.721  38.428  52.438  1.00  0.00     0.187 HD
HETATM    4  N   UNK N   1      41.745  38.774  52.804  0.00  0.00    -0.285 N 
HETATM    5  C   UNK N   1      42.446  39.046  53.949  0.00  0.00     0.072 A 
HETATM    6  C   UNK N   1      41.514  39.121  54.997  0.00  0.00     0.019 A 
HETATM    7  C   UNK N   1      41.773  39.461  56.440  0.00  0.00     0.189 C 
HETATM    8  S   UNK N   1      43.247  40.493  56.452  0.00  0.00     0.180 S 
HETATM    9  O   UNK N   1      43.854  40.616  57.858  0.00  0.00    -0.222 OA
HETATM   10  O   UNK N   1      42.881  41.947  56.112  0.00  0.00    -0.222 OA
HETATM   11  C   UNK N   1      44.429  39.903  55.275  0.00  0.00     0.072 A 
HETATM   12  C   UNK N   1      45.801  40.065  55.500  0.00  0.00     0.024 A 
HETATM   13  C   UNK N   1      46.722  39.535  54.600  0.00  0.00     0.002 A 
HETATM   14  C   UNK N   1      46.275  38.841  53.480  0.00  0.00     0.001 A 
HETATM   15  C   UNK N   1      44.907  38.690  53.240  0.00  0.00     0.015 A 
HETATM   16  C   UNK N   1      43.947  39.229  54.129  0.00  0.00     0.014 A 
ENDROOT
BRANCH   4  17
HETATM   17  C   UNK N   1      42.201  38.742  51.404  0.00  0.00     0.111 C 
HETATM   18  C   UNK N   1      40.929  38.747  50.521  0.00  0.00     0.057 C 
HETATM   19  C   UNK N   1      41.195  38.128  49.158  0.00  0.00     0.274 C 
HETATM   20  N   UNK N   1      41.605  36.693  49.267  0.00  0.00     0.090 N 
HETATM   21  C   UNK N   1      42.287  36.337  50.546  0.00  0.00     0.274 C 
HETATM   22  C   UNK N   1      43.100  37.515  51.077  0.00  0.00     0.057 C 
BRANCH  20  23
HETATM   23  C   UNK N   1      42.379  36.255  48.078  0.00  0.00     0.302 C 
BRANCH  23  24
HETATM   24  C   UNK N   1      43.330  35.097  48.427  0.00  0.00     0.302 C 
BRANCH  24  25
HETATM   25  N   UNK N   1      42.837  33.790  47.924  0.00  0.00     0.094 N 
HETATM   26  C   UNK N   1      43.344  32.653  48.747  0.00  0.00     0.298 C 
HETATM   27  C   UNK N   1      44.413  31.809  48.021  0.00  0.00     0.198 C 
HETATM   28  O   UNK N   1      45.319  32.649  47.342  0.00  0.00    -0.388 OA
HETATM   29  C   UNK N   1      44.669  33.366  46.291  0.00  0.00     0.198 C 
HETATM   30  C   UNK N   1      43.140  33.558  46.496  0.00  0.00     0.298 C 
ENDBRANCH  24  25
ENDBRANCH  23  24
ENDBRANCH  20  23
ENDBRANCH   4  17
BRANCH   1  31
HETATM   31  C   UNK N   1      38.987  38.627  55.100  0.00  0.00     0.272 C 
HETATM   32  O   UNK N   1      38.617  37.473  55.274  0.00  0.00    -0.266 OA
HETATM   33  N   UNK N   1      38.141  39.663  55.421  0.00  0.00    -0.343 N 
HETATM   34  C   UNK N   1      36.730  39.395  55.668  0.00  0.00     0.152 C 
HETATM   35  C   UNK N   1      38.570  41.053  55.508  0.00  0.00     0.152 C 
HETATM   36  C   UNK N   1      35.951  40.720  55.813  0.00  0.00     0.187 C 
HETATM   37  O   UNK N   1      36.257  41.610  54.746  0.00  0.00    -0.388 OA
HETATM   38  C   UNK N   1      37.655  41.897  54.613  0.00  0.00     0.187 C 
ENDBRANCH   1  31
TORSDOF 5
ENDMDL
MODEL 3
REMARK VINA RESULT:      -7.8      3.205      7.217
REMARK  5 active torsions:
REMARK  status: ('A' for Active; 'I' for Inactive)
REMARK    1  A    between atoms: C_2  and  C_3 
REMARK       I    between atoms: C_2  and  N_33 
REMARK    2  A    between atoms: N_6  and  C_7 
REMARK    3  A    between atoms: N_10  and  C_11 
REMARK    4  A    between atoms: C_11  and  C_12 
REMARK    5  A    between atoms: C_12  and  N_13 
ROOT
HETATM    1  C   UNK N   1      40.334  38.826  51.643  0.00  0.00     0.126 A 
HETATM    2  N   UNK N   1      39.884  39.250  52.835  0.00  0.00    -0.292 N 
ATOM      3  HN  UNK N   1      38.902  39.382  53.080  1.00  0.00     0.187 HD
HETATM    4  N   UNK N   1      40.909  39.471  53.640  0.00  0.00    -0.285 N 
HETATM    5  C   UNK N   1      42.072  39.206  52.967  0.00  0.00     0.072 A 
HETATM    6  C   UNK N   1      41.714  38.760  51.684  0.00  0.00     0.019 A 
HETATM    7  C   UNK N   1      42.625  38.283  50.585  0.00  0.00     0.189 C 
HETATM    8  S   UNK N   1      44.093  37.636  51.402  0.00  0.00     0.180 S 
HETATM    9  O   UNK N   1      45.264  37.453  50.424  0.00  0.00    -0.222 OA
HETATM   10  O   UNK N   1      43.838  36.203  51.897  0.00  0.00    -0.222 OA
HETATM   11  C   UNK N   1      44.538  38.654  52.779  0.00  0.00     0.072 A 
HETATM   12  C   UNK N   1      45.878  38.788  53.162  0.00  0.00     0.024 A 
HETATM   13  C   UNK N   1      46.222  39.646  54.204  0.00  0.00     0.002 A 
HETATM   14  C   UNK N   1      45.232  40.373  54.858  0.00  0.00     0.001 A 
HETATM   15  C   UNK N   1      43.891  40.231  54.491  0.00  0.00     0.015 A 
HETATM   16  C   UNK N   1      43.509  39.357  53.447  0.00  0.00     0.014 A 
ENDROOT
BRANCH   4  17
HETATM   17  C   UNK N   1      40.697  39.815  55.057  0.00  0.00     0.111 C 
HETATM   18  C   UNK N   1      40.694  38.482  55.844  0.00  0.00     0.057 C 
HETATM   19  C   UNK N   1      39.915  38.605  57.145  0.00  0.00     0.274 C 
HETATM   20  N   UNK N   1      38.476  38.936  56.905  0.00  0.00     0.090 N 
HETATM   21  C   UNK N   1      38.214  39.691  55.645  0.00  0.00     0.274 C 
HETATM   22  C   UNK N   1      39.384  40.611  55.306  0.00  0.00     0.057 C 
BRANCH  20  23
HETATM   23  C   UNK N   1      37.862  39.589  58.088  0.00  0.00     0.302 C 
BRANCH  23  24
HETATM   24  C   UNK N   1      38.814  39.564  59.296  0.00  0.00     0.302 C 
BRANCH  24  25
HETATM   25  N   UNK N   1      39.010  40.909  59.890  0.00  0.00     0.094 N 
HETATM   26  C   UNK N   1      38.676  41.996  58.923  0.00  0.00     0.298 C 
HETATM   27  C   UNK N   1      39.919  42.745  58.400  0.00  0.00     0.198 C 
HETATM   28  O   UNK N   1      40.952  41.831  58.106  0.00  0.00    -0.388 OA
HETATM   29  C   UNK N   1      41.412  41.176  59.289  0.00  0.00     0.198 C 
HETATM   30  C   UNK N   1      40.367  41.117  60.438  0.00  0.00     0.298 C 
ENDBRANCH  24  25
ENDBRANCH  23  24
ENDBRANCH  20  23
ENDBRANCH   4  17
BRANCH   1  31
HETATM   31  C   UNK N   1      39.443  38.626  50.472  0.00  0.00     0.272 C 
HETATM   32  O   UNK N   1      39.222  39.591  49.753  0.00  0.00    -0.266 OA
HETATM   33  N   UNK N   1      38.773  37.446  50.246  0.00  0.00    -0.343 N 
HETATM   34  C   UNK N   1      37.605  37.433  49.375  0.00  0.00     0.152 C 
HETATM   35  C   UNK N   1      39.150  36.179  50.858  0.00  0.00     0.152 C 
HETATM   36  C   UNK N   1      36.911  36.055  49.431  0.00  0.00     0.187 C 
HETATM   37  O   UNK N   1      36.712  35.639  50.776  0.00  0.00    -0.388 OA
HETATM   38  C   UNK N   1      37.915  35.594  51.554  0.00  0.00     0.187 C 
ENDBRANCH   1  31
TORSDOF 5
ENDMDL
MODEL 4
REMARK VINA RESULT:      -7.5      3.483      7.811
REMARK  5 active torsions:
REMARK  status: ('A' for Active; 'I' for Inactive)
REMARK    1  A    between atoms: C_2  and  C_3 
REMARK       I    between atoms: C_2  and  N_33 
REMARK    2  A    between atoms: N_6  and  C_7 
REMARK    3  A    between atoms: N_10  and  C_11 
REMARK    4  A    between atoms: C_11  and  C_12 
REMARK    5  A    between atoms: C_12  and  N_13 
ROOT
HETATM    1  C   UNK N   1      40.417  38.875  51.614  0.00  0.00     0.126 A 
HETATM    2  N   UNK N   1      39.997  39.343  52.801  0.00  0.00    -0.292 N 
ATOM      3  HN  UNK N   1      39.024  39.514  53.055  1.00  0.00     0.187 HD
HETATM    4  N   UNK N   1      41.041  39.545  53.589  0.00  0.00    -0.285 N 
HETATM    5  C   UNK N   1      42.184  39.224  52.907  0.00  0.00     0.072 A 
HETATM    6  C   UNK N   1      41.795  38.763  51.640  0.00  0.00     0.019 A 
HETATM    7  C   UNK N   1      42.674  38.228  50.541  0.00  0.00     0.189 C 
HETATM    8  S   UNK N   1      44.129  37.549  51.354  0.00  0.00     0.180 S 
HETATM    9  O   UNK N   1      45.280  37.303  50.367  0.00  0.00    -0.222 OA
HETATM   10  O   UNK N   1      43.830  36.137  51.886  0.00  0.00    -0.222 OA
HETATM   11  C   UNK N   1      44.627  38.582  52.702  0.00  0.00     0.072 A 
HETATM   12  C   UNK N   1      45.976  38.676  53.066  0.00  0.00     0.024 A 
HETATM   13  C   UNK N   1      46.363  39.545  54.083  0.00  0.00     0.002 A 
HETATM   14  C   UNK N   1      45.408  40.321  54.733  0.00  0.00     0.001 A 
HETATM   15  C   UNK N   1      44.058  40.218  54.386  0.00  0.00     0.015 A 
HETATM   16  C   UNK N   1      43.632  39.335  53.367  0.00  0.00     0.014 A 
ENDROOT
BRANCH   4  17
HETATM   17  C   UNK N   1      40.859  39.928  55.000  0.00  0.00     0.111 C 
HETATM   18  C   UNK N   1      40.640  38.617  55.793  0.00  0.00     0.057 C 
HETATM   19  C   UNK N   1      39.867  38.866  57.079  0.00  0.00     0.274 C 
HETATM   20  N   UNK N   1      38.499  39.409  56.811  0.00  0.00     0.090 N 
HETATM   21  C   UNK N   1      38.376  40.186  55.544  0.00  0.00     0.274 C 
HETATM   22  C   UNK N   1      39.677  40.916  55.221  0.00  0.00     0.057 C 
BRANCH  20  23
HETATM   23  C   UNK N   1      37.971  40.157  57.981  0.00  0.00     0.302 C 
BRANCH  23  24
HETATM   24  C   UNK N   1      36.971  41.242  57.545  0.00  0.00     0.302 C 
BRANCH  24  25
HETATM   25  N   UNK N   1      37.217  42.541  58.218  0.00  0.00     0.094 N 
HETATM   26  C   UNK N   1      35.948  43.285  58.468  0.00  0.00     0.298 C 
HETATM   27  C   UNK N   1      35.776  44.516  57.552  0.00  0.00     0.198 C 
HETATM   28  O   UNK N   1      36.163  44.200  56.234  0.00  0.00    -0.388 OA
HETATM   29  C   UNK N   1      37.559  43.906  56.163  0.00  0.00     0.198 C 
HETATM   30  C   UNK N   1      38.178  43.404  57.497  0.00  0.00     0.298 C 
ENDBRANCH  24  25
ENDBRANCH  23  24
ENDBRANCH  20  23
ENDBRANCH   4  17
BRANCH   1  31
HETATM   31  C   UNK N   1      39.505  38.682  50.459  0.00  0.00     0.272 C 
HETATM   32  O   UNK N   1      39.277  39.647  49.743  0.00  0.00    -0.266 OA
HETATM   33  N   UNK N   1      38.823  37.506  50.245  0.00  0.00    -0.343 N 
HETATM   34  C   UNK N   1      37.640  37.500  49.395  0.00  0.00     0.152 C 
HETATM   35  C   UNK N   1      39.202  36.236  50.851  0.00  0.00     0.152 C 
HETATM   36  C   UNK N   1      36.938  36.127  49.463  0.00  0.00     0.187 C 
HETATM   37  O   UNK N   1      36.759  35.713  50.812  0.00  0.00    -0.388 OA
HETATM   38  C   UNK N   1      37.976  35.660  51.569  0.00  0.00     0.187 C 
ENDBRANCH   1  31
TORSDOF 5
ENDMDL
MODEL 5
REMARK VINA RESULT:      -7.3      2.049      5.382
REMARK  5 active torsions:
REMARK  status: ('A' for Active; 'I' for Inactive)
REMARK    1  A    between atoms: C_2  and  C_3 
REMARK       I    between atoms: C_2  and  N_33 
REMARK    2  A    between atoms: N_6  and  C_7 
REMARK    3  A    between atoms: N_10  and  C_11 
REMARK    4  A    between atoms: C_11  and  C_12 
REMARK    5  A    between atoms: C_12  and  N_13 
ROOT
HETATM    1  C   UNK N   1      38.687  38.391  53.029  0.00  0.00     0.126 A 
HETATM    2  N   UNK N   1      39.541  38.516  52.000  0.00  0.00    -0.292 N 
ATOM      3  HN  UNK N   1      40.199  39.285  51.873  1.00  0.00     0.187 HD
HETATM    4  N   UNK N   1      39.397  37.489  51.179  0.00  0.00    -0.285 N 
HETATM    5  C   UNK N   1      38.412  36.668  51.659  0.00  0.00     0.072 A 
HETATM    6  C   UNK N   1      37.964  37.223  52.869  0.00  0.00     0.019 A 
HETATM    7  C   UNK N   1      36.936  36.665  53.817  0.00  0.00     0.189 C 
HETATM    8  S   UNK N   1      36.963  34.880  53.584  0.00  0.00     0.180 S 
HETATM    9  O   UNK N   1      35.729  34.200  54.196  0.00  0.00    -0.222 OA
HETATM   10  O   UNK N   1      38.122  34.257  54.377  0.00  0.00    -0.222 OA
HETATM   11  C   UNK N   1      37.151  34.480  51.870  0.00  0.00     0.072 A 
HETATM   12  C   UNK N   1      36.587  33.311  51.346  0.00  0.00     0.024 A 
HETATM   13  C   UNK N   1      36.684  33.042  49.983  0.00  0.00     0.002 A 
HETATM   14  C   UNK N   1      37.339  33.939  49.144  0.00  0.00     0.001 A 
HETATM   15  C   UNK N   1      37.919  35.099  49.664  0.00  0.00     0.015 A 
HETATM   16  C   UNK N   1      37.849  35.393  51.046  0.00  0.00     0.014 A 
ENDROOT
BRANCH   4  17
HETATM   17  C   UNK N   1      40.307  37.303  50.035  0.00  0.00     0.111 C 
HETATM   18  C   UNK N   1      41.354  36.248  50.466  0.00  0.00     0.057 C 
HETATM   19  C   UNK N   1      42.647  36.392  49.678  0.00  0.00     0.274 C 
HETATM   20  N   UNK N   1      43.294  37.722  49.907  0.00  0.00     0.090 N 
HETATM   21  C   UNK N   1      42.349  38.821  50.261  0.00  0.00     0.274 C 
HETATM   22  C   UNK N   1      40.998  38.620  49.579  0.00  0.00     0.057 C 
BRANCH  20  23
HETATM   23  C   UNK N   1      44.190  38.093  48.782  0.00  0.00     0.302 C 
BRANCH  23  24
HETATM   24  C   UNK N   1      45.565  38.556  49.293  0.00  0.00     0.302 C 
BRANCH  24  25
HETATM   25  N   UNK N   1      46.165  37.594  50.251  0.00  0.00     0.094 N 
HETATM   26  C   UNK N   1      46.289  38.179  51.619  0.00  0.00     0.298 C 
HETATM   27  C   UNK N   1      47.746  38.501  52.011  0.00  0.00     0.198 C 
HETATM   28  O   UNK N   1      48.424  39.093  50.925  0.00  0.00    -0.388 OA
HETATM   29  C   UNK N   1      48.551  38.178  49.836  0.00  0.00     0.198 C 
HETATM   30  C   UNK N   1      47.470  37.060  49.807  0.00  0.00     0.298 C 
ENDBRANCH  24  25
ENDBRANCH  23  24
ENDBRANCH  20  23
ENDBRANCH   4  17
BRANCH   1  31
HETATM   31  C   UNK N   1      38.498  39.450  54.051  0.00  0.00     0.272 C 
HETATM   32  O   UNK N   1      37.642  40.299  53.842  0.00  0.00    -0.266 OA
HETATM   33  N   UNK N   1      39.324  39.577  55.144  0.00  0.00    -0.343 N 
HETATM   34  C   UNK N   1      39.388  40.846  55.859  0.00  0.00     0.152 C 
HETATM   35  C   UNK N   1      40.182  38.505  55.632  0.00  0.00     0.152 C 
HETATM   36  C   UNK N   1      40.515  40.810  56.913  0.00  0.00     0.187 C 
HETATM   37  O   UNK N   1      41.729  40.333  56.345  0.00  0.00    -0.388 OA
HETATM   38  C   UNK N   1      41.615  39.042  55.732  0.00  0.00     0.187 C 
ENDBRANCH   1  31
TORSDOF 5
ENDMDL
MODEL 6
REMARK VINA RESULT:      -7.1      2.739      3.505
REMARK  5 active torsions:
REMARK  status: ('A' for Active; 'I' for Inactive)
REMARK    1  A    between atoms: C_2  and  C_3 
REMARK       I    between atoms: C_2  and  N_33 
REMARK    2  A    between atoms: N_6  and  C_7 
REMARK    3  A    between atoms: N_10  and  C_11 
REMARK    4  A    between atoms: C_11  and  C_12 
REMARK    5  A    between atoms: C_12  and  N_13 
ROOT
HETATM    1  C   UNK N   1      38.705  37.605  52.141  0.00  0.00     0.126 A 
HETATM    2  N   UNK N   1      39.583  37.219  51.202  0.00  0.00    -0.292 N 
ATOM      3  HN  UNK N   1      39.356  36.665  50.376  1.00  0.00     0.187 HD
HETATM    4  N   UNK N   1      40.788  37.668  51.513  0.00  0.00    -0.285 N 
HETATM    5  C   UNK N   1      40.716  38.353  52.697  0.00  0.00     0.072 A 
HETATM    6  C   UNK N   1      39.371  38.345  53.099  0.00  0.00     0.019 A 
HETATM    7  C   UNK N   1      38.762  39.018  54.300  0.00  0.00     0.189 C 
HETATM    8  S   UNK N   1      39.818  40.428  54.668  0.00  0.00     0.180 S 
HETATM    9  O   UNK N   1      39.553  40.997  56.071  0.00  0.00    -0.222 OA
HETATM   10  O   UNK N   1      39.467  41.611  53.751  0.00  0.00    -0.222 OA
HETATM   11  C   UNK N   1      41.522  40.006  54.442  0.00  0.00     0.072 A 
HETATM   12  C   UNK N   1      42.516  40.614  55.218  0.00  0.00     0.024 A 
HETATM   13  C   UNK N   1      43.845  40.223  55.077  0.00  0.00     0.002 A 
HETATM   14  C   UNK N   1      44.181  39.224  54.168  0.00  0.00     0.001 A 
HETATM   15  C   UNK N   1      43.196  38.625  53.379  0.00  0.00     0.015 A 
HETATM   16  C   UNK N   1      41.839  39.011  53.489  0.00  0.00     0.014 A 
ENDROOT
BRANCH   4  17
HETATM   17  C   UNK N   1      41.919  37.505  50.583  0.00  0.00     0.111 C 
HETATM   18  C   UNK N   1      41.321  37.470  49.156  0.00  0.00     0.057 C 
HETATM   19  C   UNK N   1      42.232  36.730  48.188  0.00  0.00     0.274 C 
HETATM   20  N   UNK N   1      42.421  35.299  48.583  0.00  0.00     0.090 N 
HETATM   21  C   UNK N   1      42.287  35.035  50.046  0.00  0.00     0.274 C 
HETATM   22  C   UNK N   1      42.767  36.231  50.863  0.00  0.00     0.057 C 
BRANCH  20  23
HETATM   23  C   UNK N   1      43.680  34.742  48.026  0.00  0.00     0.302 C 
BRANCH  23  24
HETATM   24  C   UNK N   1      43.428  34.021  46.691  0.00  0.00     0.302 C 
BRANCH  24  25
HETATM   25  N   UNK N   1      43.754  32.575  46.759  0.00  0.00     0.094 N 
HETATM   26  C   UNK N   1      44.432  32.219  48.040  0.00  0.00     0.298 C 
HETATM   27  C   UNK N   1      45.932  31.900  47.864  0.00  0.00     0.198 C 
HETATM   28  O   UNK N   1      46.528  32.825  46.983  0.00  0.00    -0.388 OA
HETATM   29  C   UNK N   1      45.989  32.702  45.665  0.00  0.00     0.198 C 
HETATM   30  C   UNK N   1      44.556  32.100  45.611  0.00  0.00     0.298 C 
ENDBRANCH  24  25
ENDBRANCH  23  24
ENDBRANCH  20  23
ENDBRANCH   4  17
BRANCH   1  31
HETATM   31  C   UNK N   1      37.294  37.142  52.160  0.00  0.00     0.272 C 
HETATM   32  O   UNK N   1      36.478  37.770  51.498  0.00  0.00    -0.266 OA
HETATM   33  N   UNK N   1      36.861  36.127  52.981  0.00  0.00    -0.343 N 
HETATM   34  C   UNK N   1      35.443  36.005  53.293  0.00  0.00     0.152 C 
HETATM   35  C   UNK N   1      37.755  35.154  53.595  0.00  0.00     0.152 C 
HETATM   36  C   UNK N   1      35.224  34.926  54.376  0.00  0.00     0.187 C 
HETATM   37  O   UNK N   1      36.108  35.121  55.474  0.00  0.00    -0.388 OA
HETATM   38  C   UNK N   1      37.493  35.146  55.106  0.00  0.00     0.187 C 
ENDBRANCH   1  31
TORSDOF 5
ENDMDL
MODEL 7
REMARK VINA RESULT:      -7.1      3.253      8.845
REMARK  5 active torsions:
REMARK  status: ('A' for Active; 'I' for Inactive)
REMARK    1  A    between atoms: C_2  and  C_3 
REMARK       I    between atoms: C_2  and  N_33 
REMARK    2  A    between atoms: N_6  and  C_7 
REMARK    3  A    between atoms: N_10  and  C_11 
REMARK    4  A    between atoms: C_11  and  C_12 
REMARK    5  A    between atoms: C_12  and  N_13 
ROOT
HETATM    1  C   UNK N   1      40.882  38.945  51.983  0.00  0.00     0.126 A 
HETATM    2  N   UNK N   1      39.705  38.311  52.101  0.00  0.00    -0.292 N 
ATOM      3  HN  UNK N   1      38.961  38.567  52.751  1.00  0.00     0.187 HD
HETATM    4  N   UNK N   1      39.658  37.303  51.245  0.00  0.00    -0.285 N 
HETATM    5  C   UNK N   1      40.838  37.251  50.552  0.00  0.00     0.072 A 
HETATM    6  C   UNK N   1      41.628  38.324  50.998  0.00  0.00     0.019 A 
HETATM    7  C   UNK N   1      42.986  38.740  50.501  0.00  0.00     0.189 C 
HETATM    8  S   UNK N   1      43.083  38.182  48.793  0.00  0.00     0.180 S 
HETATM    9  O   UNK N   1      44.525  38.196  48.262  0.00  0.00    -0.222 OA
HETATM   10  O   UNK N   1      42.370  39.179  47.865  0.00  0.00    -0.222 OA
HETATM   11  C   UNK N   1      42.333  36.589  48.616  0.00  0.00     0.072 A 
HETATM   12  C   UNK N   1      42.800  35.684  47.654  0.00  0.00     0.024 A 
HETATM   13  C   UNK N   1      42.247  34.409  47.571  0.00  0.00     0.002 A 
HETATM   14  C   UNK N   1      41.233  34.035  48.449  0.00  0.00     0.001 A 
HETATM   15  C   UNK N   1      40.752  34.939  49.400  0.00  0.00     0.015 A 
HETATM   16  C   UNK N   1      41.284  36.245  49.499  0.00  0.00     0.014 A 
ENDROOT
BRANCH   4  17
HETATM   17  C   UNK N   1      38.424  36.519  51.067  0.00  0.00     0.111 C 
HETATM   18  C   UNK N   1      37.246  37.522  51.129  0.00  0.00     0.057 C 
HETATM   19  C   UNK N   1      35.956  36.841  51.559  0.00  0.00     0.274 C 
HETATM   20  N   UNK N   1      36.064  36.257  52.932  0.00  0.00     0.090 N 
HETATM   21  C   UNK N   1      37.446  35.863  53.334  0.00  0.00     0.274 C 
HETATM   22  C   UNK N   1      38.252  35.393  52.126  0.00  0.00     0.057 C 
BRANCH  20  23
HETATM   23  C   UNK N   1      35.086  35.158  53.136  0.00  0.00     0.302 C 
BRANCH  23  24
HETATM   24  C   UNK N   1      34.885  34.344  51.847  0.00  0.00     0.302 C 
BRANCH  24  25
HETATM   25  N   UNK N   1      34.826  32.884  52.103  0.00  0.00     0.094 N 
HETATM   26  C   UNK N   1      35.736  32.480  53.215  0.00  0.00     0.298 C 
HETATM   27  C   UNK N   1      36.977  31.701  52.730  0.00  0.00     0.198 C 
HETATM   28  O   UNK N   1      37.505  32.299  51.568  0.00  0.00    -0.388 OA
HETATM   29  C   UNK N   1      36.586  32.204  50.477  0.00  0.00     0.198 C 
HETATM   30  C   UNK N   1      35.098  32.065  50.902  0.00  0.00     0.298 C 
ENDBRANCH  24  25
ENDBRANCH  23  24
ENDBRANCH  20  23
ENDBRANCH   4  17
BRANCH   1  31
HETATM   31  C   UNK N   1      41.305  40.033  52.901  0.00  0.00     0.272 C 
HETATM   32  O   UNK N   1      40.688  41.089  52.857  0.00  0.00    -0.266 OA
HETATM   33  N   UNK N   1      42.425  39.936  53.694  0.00  0.00    -0.343 N 
HETATM   34  C   UNK N   1      43.042  41.144  54.225  0.00  0.00     0.152 C 
HETATM   35  C   UNK N   1      43.067  38.671  54.025  0.00  0.00     0.152 C 
HETATM   36  C   UNK N   1      44.381  40.804  54.912  0.00  0.00     0.187 C 
HETATM   37  O   UNK N   1      45.190  39.987  54.074  0.00  0.00    -0.388 OA
HETATM   38  C   UNK N   1      44.552  38.773  53.657  0.00  0.00     0.187 C 
ENDBRANCH   1  31
TORSDOF 5
ENDMDL
MODEL 8
REMARK VINA RESULT:      -6.9      3.651      6.301
REMARK  5 active torsions:
REMARK  status: ('A' for Active; 'I' for Inactive)
REMARK    1  A    between atoms: C_2  and  C_3 
REMARK       I    between atoms: C_2  and  N_33 
REMARK    2  A    between atoms: N_6  and  C_7 
REMARK    3  A    between atoms: N_10  and  C_11 
REMARK    4  A    between atoms: C_11  and  C_12 
REMARK    5  A    between atoms: C_12  and  N_13 
ROOT
HETATM    1  C   UNK N   1      39.272  41.430  57.478  0.00  0.00     0.126 A 
HETATM    2  N   UNK N   1      40.257  41.031  56.659  0.00  0.00    -0.292 N 
ATOM      3  HN  UNK N   1      40.948  41.644  56.226  1.00  0.00     0.187 HD
HETATM    4  N   UNK N   1      40.195  39.719  56.500  0.00  0.00    -0.285 N 
HETATM    5  C   UNK N   1      39.133  39.233  57.215  0.00  0.00     0.072 A 
HETATM    6  C   UNK N   1      38.544  40.323  57.875  0.00  0.00     0.019 A 
HETATM    7  C   UNK N   1      37.386  40.306  58.836  0.00  0.00     0.189 C 
HETATM    8  S   UNK N   1      37.394  38.674  59.595  0.00  0.00     0.180 S 
HETATM    9  O   UNK N   1      36.071  38.366  60.314  0.00  0.00    -0.222 OA
HETATM   10  O   UNK N   1      38.421  38.623  60.737  0.00  0.00    -0.222 OA
HETATM   11  C   UNK N   1      37.796  37.434  58.398  0.00  0.00     0.072 A 
HETATM   12  C   UNK N   1      37.273  36.139  58.510  0.00  0.00     0.024 A 
HETATM   13  C   UNK N   1      37.542  35.192  57.525  0.00  0.00     0.002 A 
HETATM   14  C   UNK N   1      38.326  35.537  56.428  0.00  0.00     0.001 A 
HETATM   15  C   UNK N   1      38.864  36.822  56.319  0.00  0.00     0.015 A 
HETATM   16  C   UNK N   1      38.621  37.801  57.310  0.00  0.00     0.014 A 
ENDROOT
BRANCH   4  17
HETATM   17  C   UNK N   1      41.242  38.997  55.757  0.00  0.00     0.111 C 
HETATM   18  C   UNK N   1      42.540  39.830  55.892  0.00  0.00     0.057 C 
HETATM   19  C   UNK N   1      43.495  39.563  54.739  0.00  0.00     0.274 C 
HETATM   20  N   UNK N   1      42.902  39.949  53.421  0.00  0.00     0.090 N 
HETATM   21  C   UNK N   1      41.412  39.880  53.366  0.00  0.00     0.274 C 
HETATM   22  C   UNK N   1      40.884  38.763  54.261  0.00  0.00     0.057 C 
BRANCH  20  23
HETATM   23  C   UNK N   1      43.539  39.213  52.299  0.00  0.00     0.302 C 
BRANCH  23  24
HETATM   24  C   UNK N   1      42.574  39.063  51.111  0.00  0.00     0.302 C 
BRANCH  24  25
HETATM   25  N   UNK N   1      42.829  37.828  50.328  0.00  0.00     0.094 N 
HETATM   26  C   UNK N   1      44.134  37.202  50.691  0.00  0.00     0.298 C 
HETATM   27  C   UNK N   1      45.208  37.358  49.593  0.00  0.00     0.198 C 
HETATM   28  O   UNK N   1      45.175  38.663  49.061  0.00  0.00    -0.388 OA
HETATM   29  C   UNK N   1      43.942  38.911  48.380  0.00  0.00     0.198 C 
HETATM   30  C   UNK N   1      42.754  38.034  48.866  0.00  0.00     0.298 C 
ENDBRANCH  24  25
ENDBRANCH  23  24
ENDBRANCH  20  23
ENDBRANCH   4  17
BRANCH   1  31
HETATM   31  C   UNK N   1      38.979  42.861  57.746  0.00  0.00     0.272 C 
HETATM   32  O   UNK N   1      39.569  43.401  58.672  0.00  0.00    -0.266 OA
HETATM   33  N   UNK N   1      37.994  43.550  57.078  0.00  0.00    -0.343 N 
HETATM   34  C   UNK N   1      37.450  44.773  57.654  0.00  0.00     0.152 C 
HETATM   35  C   UNK N   1      37.425  43.112  55.810  0.00  0.00     0.152 C 
HETATM   36  C   UNK N   1      36.234  45.256  56.834  0.00  0.00     0.187 C 
HETATM   37  O   UNK N   1      35.318  44.192  56.607  0.00  0.00    -0.388 OA
HETATM   38  C   UNK N   1      35.901  43.053  55.961  0.00  0.00     0.187 C 
ENDBRANCH   1  31
TORSDOF 5
ENDMDL
MODEL 9
REMARK VINA RESULT:      -6.8      3.667      9.088
REMARK  5 active torsions:
REMARK  status: ('A' for Active; 'I' for Inactive)
REMARK    1  A    between atoms: C_2  and  C_3 
REMARK       I    between atoms: C_2  and  N_33 
REMARK    2  A    between atoms: N_6  and  C_7 
REMARK    3  A    between atoms: N_10  and  C_11 
REMARK    4  A    between atoms: C_11  and  C_12 
REMARK    5  A    between atoms: C_12  and  N_13 
ROOT
HETATM    1  C   UNK N   1      40.314  38.575  51.184  0.00  0.00     0.126 A 
HETATM    2  N   UNK N   1      39.933  39.045  52.383  0.00  0.00    -0.292 N 
ATOM      3  HN  UNK N   1      40.259  39.916  52.803  1.00  0.00     0.187 HD
HETATM    4  N   UNK N   1      39.071  38.206  52.933  0.00  0.00    -0.285 N 
HETATM    5  C   UNK N   1      38.886  37.141  52.092  0.00  0.00     0.072 A 
HETATM    6  C   UNK N   1      39.660  37.380  50.945  0.00  0.00     0.019 A 
HETATM    7  C   UNK N   1      39.750  36.539  49.700  0.00  0.00     0.189 C 
HETATM    8  S   UNK N   1      38.184  35.661  49.579  0.00  0.00     0.180 S 
HETATM    9  O   UNK N   1      38.253  34.493  48.583  0.00  0.00    -0.222 OA
HETATM   10  O   UNK N   1      37.110  36.571  48.961  0.00  0.00    -0.222 OA
HETATM   11  C   UNK N   1      37.643  35.130  51.178  0.00  0.00     0.072 A 
HETATM   12  C   UNK N   1      36.888  33.960  51.322  0.00  0.00     0.024 A 
HETATM   13  C   UNK N   1      36.527  33.517  52.592  0.00  0.00     0.002 A 
HETATM   14  C   UNK N   1      36.923  34.236  53.716  0.00  0.00     0.001 A 
HETATM   15  C   UNK N   1      37.663  35.414  53.577  0.00  0.00     0.015 A 
HETATM   16  C   UNK N   1      38.032  35.897  52.300  0.00  0.00     0.014 A 
ENDROOT
BRANCH   4  17
HETATM   17  C   UNK N   1      38.387  38.543  54.193  0.00  0.00     0.111 C 
HETATM   18  C   UNK N   1      37.345  39.637  53.856  0.00  0.00     0.057 C 
HETATM   19  C   UNK N   1      37.011  40.484  55.074  0.00  0.00     0.274 C 
HETATM   20  N   UNK N   1      38.210  41.213  55.593  0.00  0.00     0.090 N 
HETATM   21  C   UNK N   1      39.514  40.543  55.315  0.00  0.00     0.274 C 
HETATM   22  C   UNK N   1      39.358  39.025  55.310  0.00  0.00     0.057 C 
BRANCH  20  23
HETATM   23  C   UNK N   1      38.056  41.566  57.027  0.00  0.00     0.302 C 
BRANCH  23  24
HETATM   24  C   UNK N   1      38.086  43.090  57.234  0.00  0.00     0.302 C 
BRANCH  24  25
HETATM   25  N   UNK N   1      36.756  43.715  57.024  0.00  0.00     0.094 N 
HETATM   26  C   UNK N   1      36.842  44.921  56.150  0.00  0.00     0.298 C 
HETATM   27  C   UNK N   1      36.635  46.243  56.919  0.00  0.00     0.198 C 
HETATM   28  O   UNK N   1      37.331  46.208  58.145  0.00  0.00    -0.388 OA
HETATM   29  C   UNK N   1      36.791  45.211  59.015  0.00  0.00     0.198 C 
HETATM   30  C   UNK N   1      36.060  44.050  58.285  0.00  0.00     0.298 C 
ENDBRANCH  24  25
ENDBRANCH  23  24
ENDBRANCH  20  23
ENDBRANCH   4  17
BRANCH   1  31
HETATM   31  C   UNK N   1      41.383  39.211  50.373  0.00  0.00     0.272 C 
HETATM   32  O   UNK N   1      41.079  40.175  49.684  0.00  0.00    -0.266 OA
HETATM   33  N   UNK N   1      42.650  38.684  50.279  0.00  0.00    -0.343 N 
HETATM   34  C   UNK N   1      43.509  39.063  49.165  0.00  0.00     0.152 C 
HETATM   35  C   UNK N   1      43.195  37.725  51.232  0.00  0.00     0.152 C 
HETATM   36  C   UNK N   1      44.792  38.204  49.162  0.00  0.00     0.187 C 
HETATM   37  O   UNK N   1      44.480  36.822  49.289  0.00  0.00    -0.388 OA
HETATM   38  C   UNK N   1      43.704  36.507  50.452  0.00  0.00     0.187 C 
ENDBRANCH   1  31
TORSDOF 5
ENDMDL
