MODEL 1
REMARK VINA RESULT:      -8.6      0.000      0.000
REMARK  6 active torsions:
REMARK  status: ('A' for Active; 'I' for Inactive)
REMARK    1  A    between atoms: O_2  and  C_3 
REMARK    2  A    between atoms: C_14  and  C_15 
REMARK       I    between atoms: C_15  and  N_17 
REMARK    3  A    between atoms: N_25  and  C_26 
REMARK    4  A    between atoms: N_30  and  C_31 
REMARK    5  A    between atoms: C_31  and  C_32 
REMARK    6  A    between atoms: C_32  and  C_33 
ROOT
HETATM    1  C   UNK N   1      37.428  38.725  50.146  0.00  0.00     0.069 A 
HETATM    2  C   UNK N   1      38.648  39.364  49.859  0.00  0.00     0.038 A 
HETATM    3  C   UNK N   1      39.781  38.613  49.527  0.00  0.00     0.018 A 
HETATM    4  C   UNK N   1      39.730  37.203  49.488  0.00  0.00     0.015 A 
HETATM    5  C   UNK N   1      38.487  36.585  49.733  0.00  0.00     0.074 A 
HETATM    6  C   UNK N   1      37.357  37.334  50.070  0.00  0.00     0.061 A 
HETATM    7  S   UNK N   1      38.373  34.829  49.574  0.00  0.00     0.180 S 
HETATM    8  O   UNK N   1      36.978  34.400  49.096  0.00  0.00    -0.222 OA
HETATM    9  O   UNK N   1      38.457  34.185  50.967  0.00  0.00    -0.222 OA
HETATM   10  C   UNK N   1      39.655  34.157  48.515  0.00  0.00     0.189 C 
HETATM   11  C   UNK N   1      40.884  35.015  48.700  0.00  0.00     0.019 A 
HETATM   12  C   UNK N   1      42.210  34.630  48.531  0.00  0.00     0.126 A 
HETATM   13  N   UNK N   1      42.998  35.659  48.881  0.00  0.00    -0.292 N 
ATOM     14  HN  UNK N   1      44.017  35.653  48.850  1.00  0.00     0.187 HD
HETATM   15  N   UNK N   1      42.256  36.680  49.276  0.00  0.00    -0.284 N 
HETATM   16  C   UNK N   1      40.938  36.347  49.152  0.00  0.00     0.072 A 
ENDROOT
BRANCH  15  17
HETATM   17  C   UNK N   1      42.887  37.851  49.918  0.00  0.00     0.137 C 
HETATM   18  C   UNK N   1      44.083  38.377  49.087  0.00  0.00     0.031 C 
HETATM   19  C   UNK N   1      45.390  37.835  49.650  0.00  0.00     0.032 C 
HETATM   20  C   UNK N   1      45.564  38.392  51.089  0.00  0.00     0.272 C 
HETATM   21  N   UNK N   1      44.296  38.430  51.883  0.00  0.00     0.090 N 
HETATM   22  C   UNK N   1      43.308  37.469  51.372  0.00  0.00     0.299 C 
BRANCH  21  23
HETATM   23  C   UNK N   1      44.550  38.234  53.326  0.00  0.00     0.273 C 
BRANCH  23  24
HETATM   24  C   UNK N   1      44.030  39.430  54.143  0.00  0.00     0.035 C 
BRANCH  24  25
HETATM   25  C   UNK N   1      42.548  39.293  54.547  0.00  0.00    -0.009 C 
HETATM   26  C   UNK N   1      41.571  39.933  53.525  0.00  0.00     0.031 C 
HETATM   27  C   UNK N   1      40.275  40.424  54.209  0.00  0.00     0.168 C 
HETATM   28  O   UNK N   1      39.868  39.539  55.230  0.00  0.00    -0.391 OA
HETATM   29  C   UNK N   1      40.812  39.508  56.306  0.00  0.00     0.168 C 
HETATM   30  C   UNK N   1      42.269  39.897  55.926  0.00  0.00     0.031 C 
ENDBRANCH  24  25
ENDBRANCH  23  24
ENDBRANCH  21  23
ENDBRANCH  15  17
BRANCH  12  31
HETATM   31  C   UNK N   1      42.742  33.255  48.273  0.00  0.00     0.272 C 
HETATM   32  O   UNK N   1      43.203  32.635  49.220  0.00  0.00    -0.266 OA
HETATM   33  N   UNK N   1      42.880  32.728  47.007  0.00  0.00    -0.343 N 
HETATM   34  C   UNK N   1      42.206  33.242  45.822  0.00  0.00     0.152 C 
HETATM   35  C   UNK N   1      43.823  31.634  46.795  0.00  0.00     0.152 C 
HETATM   36  C   UNK N   1      43.282  33.610  44.791  0.00  0.00     0.187 C 
HETATM   37  O   UNK N   1      44.302  32.619  44.610  0.00  0.00    -0.388 OA
HETATM   38  C   UNK N   1      44.035  31.394  45.285  0.00  0.00     0.187 C 
ENDBRANCH  12  31
BRANCH   1  39
HETATM   39  O   UNK N   1      36.305  39.414  50.480  0.00  0.00    -0.356 OA
HETATM   40  C   UNK N   1      35.517  40.125  49.599  0.00  0.00     0.210 C 
ENDBRANCH   1  39
TORSDOF 6
ENDMDL
MODEL 2
REMARK VINA RESULT:      -8.2      4.202      9.464
REMARK  6 active torsions:
REMARK  status: ('A' for Active; 'I' for Inactive)
REMARK    1  A    between atoms: O_2  and  C_3 
REMARK    2  A    between atoms: C_14  and  C_15 
REMARK       I    between atoms: C_15  and  N_17 
REMARK    3  A    between atoms: N_25  and  C_26 
REMARK    4  A    between atoms: N_30  and  C_31 
REMARK    5  A    between atoms: C_31  and  C_32 
REMARK    6  A    between atoms: C_32  and  C_33 
ROOT
HETATM    1  C   UNK N   1      36.795  35.422  52.945  0.00  0.00     0.069 A 
HETATM    2  C   UNK N   1      37.804  35.539  53.919  0.00  0.00     0.038 A 
HETATM    3  C   UNK N   1      38.169  36.795  54.416  0.00  0.00     0.018 A 
HETATM    4  C   UNK N   1      37.546  37.970  53.943  0.00  0.00     0.015 A 
HETATM    5  C   UNK N   1      36.505  37.827  53.002  0.00  0.00     0.074 A 
HETATM    6  C   UNK N   1      36.145  36.573  52.501  0.00  0.00     0.061 A 
HETATM    7  S   UNK N   1      35.633  39.274  52.485  0.00  0.00     0.180 S 
HETATM    8  O   UNK N   1      34.168  38.955  52.152  0.00  0.00    -0.222 OA
HETATM    9  O   UNK N   1      36.183  39.743  51.129  0.00  0.00    -0.222 OA
HETATM   10  C   UNK N   1      35.750  40.604  53.682  0.00  0.00     0.189 C 
HETATM   11  C   UNK N   1      37.106  40.498  54.338  0.00  0.00     0.019 A 
HETATM   12  C   UNK N   1      37.848  41.529  54.905  0.00  0.00     0.126 A 
HETATM   13  N   UNK N   1      39.033  41.034  55.295  0.00  0.00    -0.292 N 
ATOM     14  HN  UNK N   1      39.772  41.571  55.748  1.00  0.00     0.187 HD
HETATM   15  N   UNK N   1      39.101  39.746  55.003  0.00  0.00    -0.284 N 
HETATM   16  C   UNK N   1      37.921  39.354  54.439  0.00  0.00     0.072 A 
ENDROOT
BRANCH  15  17
HETATM   17  C   UNK N   1      40.383  39.023  55.131  0.00  0.00     0.137 C 
HETATM   18  C   UNK N   1      40.932  39.095  56.577  0.00  0.00     0.031 C 
HETATM   19  C   UNK N   1      41.974  40.199  56.687  0.00  0.00     0.032 C 
HETATM   20  C   UNK N   1      43.171  39.827  55.770  0.00  0.00     0.272 C 
HETATM   21  N   UNK N   1      42.769  39.223  54.462  0.00  0.00     0.090 N 
HETATM   22  C   UNK N   1      41.396  39.597  54.091  0.00  0.00     0.299 C 
BRANCH  21  23
HETATM   23  C   UNK N   1      43.732  39.554  53.390  0.00  0.00     0.273 C 
BRANCH  23  24
HETATM   24  C   UNK N   1      44.569  38.320  53.004  0.00  0.00     0.035 C 
BRANCH  24  25
HETATM   25  C   UNK N   1      44.357  37.875  51.543  0.00  0.00    -0.009 C 
HETATM   26  C   UNK N   1      45.658  37.906  50.696  0.00  0.00     0.031 C 
HETATM   27  C   UNK N   1      45.358  38.167  49.203  0.00  0.00     0.168 C 
HETATM   28  O   UNK N   1      44.177  37.511  48.795  0.00  0.00    -0.391 OA
HETATM   29  C   UNK N   1      43.024  38.045  49.456  0.00  0.00     0.168 C 
HETATM   30  C   UNK N   1      43.298  38.721  50.830  0.00  0.00     0.031 C 
ENDBRANCH  24  25
ENDBRANCH  23  24
ENDBRANCH  21  23
ENDBRANCH  15  17
BRANCH  12  31
HETATM   31  C   UNK N   1      37.555  42.996  54.873  0.00  0.00     0.272 C 
HETATM   32  O   UNK N   1      37.985  43.644  53.930  0.00  0.00    -0.266 OA
HETATM   33  N   UNK N   1      36.970  43.669  55.924  0.00  0.00    -0.343 N 
HETATM   34  C   UNK N   1      36.231  43.028  57.004  0.00  0.00     0.152 C 
HETATM   35  C   UNK N   1      37.156  45.113  56.033  0.00  0.00     0.152 C 
HETATM   36  C   UNK N   1      36.903  43.417  58.328  0.00  0.00     0.187 C 
HETATM   37  O   UNK N   1      37.210  44.811  58.457  0.00  0.00    -0.388 OA
HETATM   38  C   UNK N   1      36.674  45.614  57.411  0.00  0.00     0.187 C 
ENDBRANCH  12  31
BRANCH   1  39
HETATM   39  O   UNK N   1      36.415  34.223  52.429  0.00  0.00    -0.356 OA
HETATM   40  C   UNK N   1      36.835  33.708  51.221  0.00  0.00     0.210 C 
ENDBRANCH   1  39
TORSDOF 6
ENDMDL
MODEL 3
REMARK VINA RESULT:      -8.2      4.041      9.367
REMARK  6 active torsions:
REMARK  status: ('A' for Active; 'I' for Inactive)
REMARK    1  A    between atoms: O_2  and  C_3 
REMARK    2  A    between atoms: C_14  and  C_15 
REMARK       I    between atoms: C_15  and  N_17 
REMARK    3  A    between atoms: N_25  and  C_26 
REMARK    4  A    between atoms: N_30  and  C_31 
REMARK    5  A    between atoms: C_31  and  C_32 
REMARK    6  A    between atoms: C_32  and  C_33 
ROOT
HETATM    1  C   UNK N   1      36.722  35.422  52.721  0.00  0.00     0.069 A 
HETATM    2  C   UNK N   1      37.765  35.507  53.662  0.00  0.00     0.038 A 
HETATM    3  C   UNK N   1      38.150  36.746  54.185  0.00  0.00     0.018 A 
HETATM    4  C   UNK N   1      37.514  37.936  53.772  0.00  0.00     0.015 A 
HETATM    5  C   UNK N   1      36.441  37.824  52.864  0.00  0.00     0.074 A 
HETATM    6  C   UNK N   1      36.060  36.588  52.337  0.00  0.00     0.061 A 
HETATM    7  S   UNK N   1      35.554  39.289  52.423  0.00  0.00     0.180 S 
HETATM    8  O   UNK N   1      34.078  38.982  52.132  0.00  0.00    -0.222 OA
HETATM    9  O   UNK N   1      36.059  39.800  51.064  0.00  0.00    -0.222 OA
HETATM   10  C   UNK N   1      35.717  40.580  53.657  0.00  0.00     0.189 C 
HETATM   11  C   UNK N   1      37.095  40.451  54.261  0.00  0.00     0.019 A 
HETATM   12  C   UNK N   1      37.859  41.463  54.834  0.00  0.00     0.126 A 
HETATM   13  N   UNK N   1      39.056  40.954  55.167  0.00  0.00    -0.292 N 
ATOM     14  HN  UNK N   1      39.811  41.476  55.610  1.00  0.00     0.187 HD
HETATM   15  N   UNK N   1      39.110  39.676  54.832  0.00  0.00    -0.284 N 
HETATM   16  C   UNK N   1      37.910  39.304  54.298  0.00  0.00     0.072 A 
ENDROOT
BRANCH  15  17
HETATM   17  C   UNK N   1      40.393  38.948  54.892  0.00  0.00     0.137 C 
HETATM   18  C   UNK N   1      41.057  39.083  56.285  0.00  0.00     0.031 C 
HETATM   19  C   UNK N   1      42.111  40.181  56.258  0.00  0.00     0.032 C 
HETATM   20  C   UNK N   1      43.228  39.754  55.268  0.00  0.00     0.272 C 
HETATM   21  N   UNK N   1      42.719  39.091  54.026  0.00  0.00     0.090 N 
HETATM   22  C   UNK N   1      41.324  39.460  53.748  0.00  0.00     0.299 C 
BRANCH  21  23
HETATM   23  C   UNK N   1      43.595  39.361  52.866  0.00  0.00     0.273 C 
BRANCH  23  24
HETATM   24  C   UNK N   1      44.147  38.050  52.278  0.00  0.00     0.035 C 
BRANCH  24  25
HETATM   25  C   UNK N   1      43.676  37.786  50.834  0.00  0.00    -0.009 C 
HETATM   26  C   UNK N   1      42.682  38.855  50.306  0.00  0.00     0.031 C 
HETATM   27  C   UNK N   1      41.716  38.263  49.255  0.00  0.00     0.168 C 
HETATM   28  O   UNK N   1      42.371  37.330  48.425  0.00  0.00    -0.391 OA
HETATM   29  C   UNK N   1      42.795  36.177  49.162  0.00  0.00     0.168 C 
HETATM   30  C   UNK N   1      43.026  36.407  50.683  0.00  0.00     0.031 C 
ENDBRANCH  24  25
ENDBRANCH  23  24
ENDBRANCH  21  23
ENDBRANCH  15  17
BRANCH  12  31
HETATM   31  C   UNK N   1      37.569  42.931  54.858  0.00  0.00     0.272 C 
HETATM   32  O   UNK N   1      38.087  43.630  54.000  0.00  0.00    -0.266 OA
HETATM   33  N   UNK N   1      36.884  43.545  55.885  0.00  0.00    -0.343 N 
HETATM   34  C   UNK N   1      36.046  42.847  56.851  0.00  0.00     0.152 C 
HETATM   35  C   UNK N   1      37.058  44.980  56.094  0.00  0.00     0.152 C 
HETATM   36  C   UNK N   1      36.587  43.156  58.253  0.00  0.00     0.187 C 
HETATM   37  O   UNK N   1      36.879  44.540  58.490  0.00  0.00    -0.388 OA
HETATM   38  C   UNK N   1      36.445  45.403  57.445  0.00  0.00     0.187 C 
ENDBRANCH  12  31
BRANCH   1  39
HETATM   39  O   UNK N   1      36.321  34.241  52.182  0.00  0.00    -0.356 OA
HETATM   40  C   UNK N   1      37.013  33.528  51.225  0.00  0.00     0.210 C 
ENDBRANCH   1  39
TORSDOF 6
ENDMDL
MODEL 4
REMARK VINA RESULT:      -8.0      4.090      7.782
REMARK  6 active torsions:
REMARK  status: ('A' for Active; 'I' for Inactive)
REMARK    1  A    between atoms: O_2  and  C_3 
REMARK    2  A    between atoms: C_14  and  C_15 
REMARK       I    between atoms: C_15  and  N_17 
REMARK    3  A    between atoms: N_25  and  C_26 
REMARK    4  A    between atoms: N_30  and  C_31 
REMARK    5  A    between atoms: C_31  and  C_32 
REMARK    6  A    between atoms: C_32  and  C_33 
ROOT
HETATM    1  C   UNK N   1      42.231  40.493  58.270  0.00  0.00     0.069 A 
HETATM    2  C   UNK N   1      41.086  39.708  58.039  0.00  0.00     0.038 A 
HETATM    3  C   UNK N   1      40.781  39.261  56.750  0.00  0.00     0.018 A 
HETATM    4  C   UNK N   1      41.603  39.598  55.653  0.00  0.00     0.015 A 
HETATM    5  C   UNK N   1      42.770  40.345  55.913  0.00  0.00     0.074 A 
HETATM    6  C   UNK N   1      43.072  40.797  57.200  0.00  0.00     0.061 A 
HETATM    7  S   UNK N   1      43.874  40.677  54.573  0.00  0.00     0.180 S 
HETATM    8  O   UNK N   1      45.330  40.755  55.055  0.00  0.00    -0.222 OA
HETATM    9  O   UNK N   1      43.624  42.100  54.048  0.00  0.00    -0.222 OA
HETATM   10  C   UNK N   1      43.696  39.496  53.236  0.00  0.00     0.189 C 
HETATM   11  C   UNK N   1      42.243  39.088  53.189  0.00  0.00     0.019 A 
HETATM   12  C   UNK N   1      41.531  38.641  52.080  0.00  0.00     0.126 A 
HETATM   13  N   UNK N   1      40.249  38.472  52.439  0.00  0.00    -0.292 N 
ATOM     14  HN  UNK N   1      39.506  38.145  51.821  1.00  0.00     0.187 HD
HETATM   15  N   UNK N   1      40.091  38.794  53.711  0.00  0.00    -0.284 N 
HETATM   16  C   UNK N   1      41.301  39.150  54.234  0.00  0.00     0.072 A 
ENDROOT
BRANCH  15  17
HETATM   17  C   UNK N   1      38.736  38.904  54.286  0.00  0.00     0.137 C 
HETATM   18  C   UNK N   1      37.712  38.057  53.490  0.00  0.00     0.031 C 
HETATM   19  C   UNK N   1      36.958  38.937  52.504  0.00  0.00     0.032 C 
HETATM   20  C   UNK N   1      36.144  39.982  53.314  0.00  0.00     0.272 C 
HETATM   21  N   UNK N   1      36.872  40.535  54.498  0.00  0.00     0.090 N 
HETATM   22  C   UNK N   1      38.329  40.410  54.346  0.00  0.00     0.299 C 
BRANCH  21  23
HETATM   23  C   UNK N   1      36.472  41.930  54.781  0.00  0.00     0.273 C 
BRANCH  23  24
HETATM   24  C   UNK N   1      37.686  42.874  54.711  0.00  0.00     0.035 C 
BRANCH  24  25
HETATM   25  C   UNK N   1      37.683  43.952  55.814  0.00  0.00    -0.009 C 
HETATM   26  C   UNK N   1      38.207  43.435  57.181  0.00  0.00     0.031 C 
HETATM   27  C   UNK N   1      37.567  44.200  58.361  0.00  0.00     0.168 C 
HETATM   28  O   UNK N   1      37.403  45.568  58.056  0.00  0.00    -0.391 OA
HETATM   29  C   UNK N   1      36.460  45.760  56.995  0.00  0.00     0.168 C 
HETATM   30  C   UNK N   1      36.291  44.553  56.028  0.00  0.00     0.031 C 
ENDBRANCH  24  25
ENDBRANCH  23  24
ENDBRANCH  21  23
ENDBRANCH  15  17
BRANCH  12  31
HETATM   31  C   UNK N   1      41.985  38.596  50.654  0.00  0.00     0.272 C 
HETATM   32  O   UNK N   1      41.657  39.517  49.921  0.00  0.00    -0.266 OA
HETATM   33  N   UNK N   1      42.611  37.501  50.099  0.00  0.00    -0.343 N 
HETATM   34  C   UNK N   1      43.242  36.435  50.866  0.00  0.00     0.152 C 
HETATM   35  C   UNK N   1      42.582  37.328  48.650  0.00  0.00     0.152 C 
HETATM   36  C   UNK N   1      42.580  35.110  50.464  0.00  0.00     0.187 C 
HETATM   37  O   UNK N   1      42.424  34.923  49.051  0.00  0.00    -0.388 OA
HETATM   38  C   UNK N   1      43.076  35.917  48.267  0.00  0.00     0.187 C 
ENDBRANCH  12  31
BRANCH   1  39
HETATM   39  O   UNK N   1      42.562  40.956  59.505  0.00  0.00    -0.356 OA
HETATM   40  C   UNK N   1      41.682  41.526  60.403  0.00  0.00     0.210 C 
ENDBRANCH   1  39
TORSDOF 6
ENDMDL
MODEL 5
REMARK VINA RESULT:      -7.7      3.290      7.889
REMARK  6 active torsions:
REMARK  status: ('A' for Active; 'I' for Inactive)
REMARK    1  A    between atoms: O_2  and  C_3 
REMARK    2  A    between atoms: C_14  and  C_15 
REMARK       I    between atoms: C_15  and  N_17 
REMARK    3  A    between atoms: N_25  and  C_26 
REMARK    4  A    between atoms: N_30  and  C_31 
REMARK    5  A    between atoms: C_31  and  C_32 
REMARK    6  A    between atoms: C_32  and  C_33 
ROOT
HETATM    1  C   UNK N   1      41.970  40.390  57.912  0.00  0.00     0.069 A 
HETATM    2  C   UNK N   1      40.813  39.701  57.503  0.00  0.00     0.038 A 
HETATM    3  C   UNK N   1      40.709  39.202  56.200  0.00  0.00     0.018 A 
HETATM    4  C   UNK N   1      41.750  39.390  55.266  0.00  0.00     0.015 A 
HETATM    5  C   UNK N   1      42.919  40.042  55.710  0.00  0.00     0.074 A 
HETATM    6  C   UNK N   1      43.021  40.546  57.009  0.00  0.00     0.061 A 
HETATM    7  S   UNK N   1      44.280  40.185  54.592  0.00  0.00     0.180 S 
HETATM    8  O   UNK N   1      45.622  40.159  55.339  0.00  0.00    -0.222 OA
HETATM    9  O   UNK N   1      44.279  41.589  53.965  0.00  0.00    -0.222 OA
HETATM   10  C   UNK N   1      44.233  38.942  53.300  0.00  0.00     0.189 C 
HETATM   11  C   UNK N   1      42.780  38.668  52.995  0.00  0.00     0.019 A 
HETATM   12  C   UNK N   1      42.245  38.218  51.792  0.00  0.00     0.126 A 
HETATM   13  N   UNK N   1      40.907  38.191  51.907  0.00  0.00    -0.292 N 
ATOM     14  HN  UNK N   1      40.263  37.895  51.174  1.00  0.00     0.187 HD
HETATM   15  N   UNK N   1      40.550  38.606  53.110  0.00  0.00    -0.284 N 
HETATM   16  C   UNK N   1      41.673  38.883  53.837  0.00  0.00     0.072 A 
ENDROOT
BRANCH  15  17
HETATM   17  C   UNK N   1      39.130  38.877  53.410  0.00  0.00     0.137 C 
HETATM   18  C   UNK N   1      38.562  37.859  54.429  0.00  0.00     0.031 C 
HETATM   19  C   UNK N   1      37.810  36.754  53.701  0.00  0.00     0.032 C 
HETATM   20  C   UNK N   1      36.593  37.393  52.979  0.00  0.00     0.272 C 
HETATM   21  N   UNK N   1      36.886  38.720  52.353  0.00  0.00     0.090 N 
HETATM   22  C   UNK N   1      38.320  38.883  52.076  0.00  0.00     0.299 C 
BRANCH  21  23
HETATM   23  C   UNK N   1      36.068  38.943  51.141  0.00  0.00     0.273 C 
BRANCH  23  24
HETATM   24  C   UNK N   1      36.937  38.873  49.872  0.00  0.00     0.035 C 
BRANCH  24  25
HETATM   25  C   UNK N   1      36.347  39.664  48.687  0.00  0.00    -0.009 C 
HETATM   26  C   UNK N   1      35.263  40.692  49.112  0.00  0.00     0.031 C 
HETATM   27  C   UNK N   1      34.231  40.927  47.987  0.00  0.00     0.168 C 
HETATM   28  O   UNK N   1      34.847  40.923  46.717  0.00  0.00    -0.391 OA
HETATM   29  C   UNK N   1      35.387  39.635  46.399  0.00  0.00     0.168 C 
HETATM   30  C   UNK N   1      35.746  38.743  47.622  0.00  0.00     0.031 C 
ENDBRANCH  24  25
ENDBRANCH  23  24
ENDBRANCH  21  23
ENDBRANCH  15  17
BRANCH  12  31
HETATM   31  C   UNK N   1      42.948  38.041  50.483  0.00  0.00     0.272 C 
HETATM   32  O   UNK N   1      43.505  39.014  49.998  0.00  0.00    -0.266 OA
HETATM   33  N   UNK N   1      42.861  36.887  49.734  0.00  0.00    -0.343 N 
HETATM   34  C   UNK N   1      42.420  35.599  50.251  0.00  0.00     0.152 C 
HETATM   35  C   UNK N   1      43.144  36.950  48.303  0.00  0.00     0.152 C 
HETATM   36  C   UNK N   1      41.218  35.142  49.413  0.00  0.00     0.187 C 
HETATM   37  O   UNK N   1      41.390  35.276  47.997  0.00  0.00    -0.388 OA
HETATM   38  C   UNK N   1      42.712  35.638  47.613  0.00  0.00     0.187 C 
ENDBRANCH  12  31
BRANCH   1  39
HETATM   39  O   UNK N   1      42.111  40.898  59.165  0.00  0.00    -0.356 OA
HETATM   40  C   UNK N   1      41.084  41.394  59.942  0.00  0.00     0.210 C 
ENDBRANCH   1  39
TORSDOF 6
ENDMDL
MODEL 6
REMARK VINA RESULT:      -7.7      4.239      7.798
REMARK  6 active torsions:
REMARK  status: ('A' for Active; 'I' for Inactive)
REMARK    1  A    between atoms: O_2  and  C_3 
REMARK    2  A    between atoms: C_14  and  C_15 
REMARK       I    between atoms: C_15  and  N_17 
REMARK    3  A    between atoms: N_25  and  C_26 
REMARK    4  A    between atoms: N_30  and  C_31 
REMARK    5  A    between atoms: C_31  and  C_32 
REMARK    6  A    between atoms: C_32  and  C_33 
ROOT
HETATM    1  C   UNK N   1      41.705  33.809  40.382  0.00  0.00     0.069 A 
HETATM    2  C   UNK N   1      42.519  33.554  41.501  0.00  0.00     0.038 A 
HETATM    3  C   UNK N   1      41.952  33.396  42.770  0.00  0.00     0.018 A 
HETATM    4  C   UNK N   1      40.558  33.503  42.958  0.00  0.00     0.015 A 
HETATM    5  C   UNK N   1      39.756  33.712  41.818  0.00  0.00     0.074 A 
HETATM    6  C   UNK N   1      40.322  33.876  40.551  0.00  0.00     0.061 A 
HETATM    7  S   UNK N   1      38.000  33.732  42.015  0.00  0.00     0.180 S 
HETATM    8  O   UNK N   1      37.291  33.192  40.764  0.00  0.00    -0.222 OA
HETATM    9  O   UNK N   1      37.510  35.188  42.068  0.00  0.00    -0.222 OA
HETATM   10  C   UNK N   1      37.470  32.857  43.488  0.00  0.00     0.189 C 
HETATM   11  C   UNK N   1      38.543  33.048  44.532  0.00  0.00     0.019 A 
HETATM   12  C   UNK N   1      38.384  33.028  45.914  0.00  0.00     0.126 A 
HETATM   13  N   UNK N   1      39.563  33.329  46.481  0.00  0.00    -0.292 N 
ATOM     14  HN  UNK N   1      39.733  33.380  47.486  1.00  0.00     0.187 HD
HETATM   15  N   UNK N   1      40.469  33.551  45.545  0.00  0.00    -0.284 N 
HETATM   16  C   UNK N   1      39.900  33.358  44.319  0.00  0.00     0.072 A 
ENDROOT
BRANCH  15  17
HETATM   17  C   UNK N   1      41.786  34.114  45.906  0.00  0.00     0.137 C 
HETATM   18  C   UNK N   1      42.890  33.028  45.890  0.00  0.00     0.031 C 
HETATM   19  C   UNK N   1      43.141  32.515  47.301  0.00  0.00     0.032 C 
HETATM   20  C   UNK N   1      43.683  33.693  48.154  0.00  0.00     0.272 C 
HETATM   21  N   UNK N   1      43.014  35.002  47.877  0.00  0.00     0.090 N 
HETATM   22  C   UNK N   1      41.676  34.815  47.297  0.00  0.00     0.299 C 
BRANCH  21  23
HETATM   23  C   UNK N   1      42.969  35.857  49.083  0.00  0.00     0.273 C 
BRANCH  23  24
HETATM   24  C   UNK N   1      43.397  37.298  48.750  0.00  0.00     0.035 C 
BRANCH  24  25
HETATM   25  C   UNK N   1      44.405  37.883  49.760  0.00  0.00    -0.009 C 
HETATM   26  C   UNK N   1      45.885  37.623  49.371  0.00  0.00     0.031 C 
HETATM   27  C   UNK N   1      46.795  37.543  50.617  0.00  0.00     0.168 C 
HETATM   28  O   UNK N   1      46.398  38.472  51.601  0.00  0.00    -0.391 OA
HETATM   29  C   UNK N   1      45.101  38.163  52.125  0.00  0.00     0.168 C 
HETATM   30  C   UNK N   1      44.178  37.347  51.176  0.00  0.00     0.031 C 
ENDBRANCH  24  25
ENDBRANCH  23  24
ENDBRANCH  21  23
ENDBRANCH  15  17
BRANCH  12  31
HETATM   31  C   UNK N   1      37.106  32.961  46.690  0.00  0.00     0.272 C 
HETATM   32  O   UNK N   1      36.734  33.973  47.265  0.00  0.00    -0.266 OA
HETATM   33  N   UNK N   1      36.424  31.784  46.915  0.00  0.00    -0.343 N 
HETATM   34  C   UNK N   1      36.616  30.560  46.149  0.00  0.00     0.152 C 
HETATM   35  C   UNK N   1      35.501  31.706  48.043  0.00  0.00     0.152 C 
HETATM   36  C   UNK N   1      37.011  29.449  47.131  0.00  0.00     0.187 C 
HETATM   37  O   UNK N   1      36.206  29.383  48.315  0.00  0.00    -0.388 OA
HETATM   38  C   UNK N   1      35.073  30.243  48.286  0.00  0.00     0.187 C 
ENDBRANCH  12  31
BRANCH   1  39
HETATM   39  O   UNK N   1      42.214  33.976  39.133  0.00  0.00    -0.356 OA
HETATM   40  C   UNK N   1      42.647  32.959  38.308  0.00  0.00     0.210 C 
ENDBRANCH   1  39
TORSDOF 6
ENDMDL
MODEL 7
REMARK VINA RESULT:      -7.7      4.115      7.639
REMARK  6 active torsions:
REMARK  status: ('A' for Active; 'I' for Inactive)
REMARK    1  A    between atoms: O_2  and  C_3 
REMARK    2  A    between atoms: C_14  and  C_15 
REMARK       I    between atoms: C_15  and  N_17 
REMARK    3  A    between atoms: N_25  and  C_26 
REMARK    4  A    between atoms: N_30  and  C_31 
REMARK    5  A    between atoms: C_31  and  C_32 
REMARK    6  A    between atoms: C_32  and  C_33 
ROOT
HETATM    1  C   UNK N   1      41.462  33.830  40.277  0.00  0.00     0.069 A 
HETATM    2  C   UNK N   1      42.329  33.475  41.328  0.00  0.00     0.038 A 
HETATM    3  C   UNK N   1      41.842  33.329  42.631  0.00  0.00     0.018 A 
HETATM    4  C   UNK N   1      40.479  33.548  42.924  0.00  0.00     0.015 A 
HETATM    5  C   UNK N   1      39.619  33.856  41.850  0.00  0.00     0.074 A 
HETATM    6  C   UNK N   1      40.106  34.008  40.549  0.00  0.00     0.061 A 
HETATM    7  S   UNK N   1      37.889  34.018  42.176  0.00  0.00     0.180 S 
HETATM    8  O   UNK N   1      37.049  33.576  40.969  0.00  0.00    -0.222 OA
HETATM    9  O   UNK N   1      37.532  35.508  42.298  0.00  0.00    -0.222 OA
HETATM   10  C   UNK N   1      37.393  33.149  43.664  0.00  0.00     0.189 C 
HETATM   11  C   UNK N   1      38.551  33.219  44.631  0.00  0.00     0.019 A 
HETATM   12  C   UNK N   1      38.489  33.173  46.020  0.00  0.00     0.126 A 
HETATM   13  N   UNK N   1      39.727  33.357  46.506  0.00  0.00    -0.292 N 
ATOM     14  HN  UNK N   1      39.972  33.364  47.495  1.00  0.00     0.187 HD
HETATM   15  N   UNK N   1      40.580  33.529  45.511  0.00  0.00    -0.284 N 
HETATM   16  C   UNK N   1      39.910  33.419  44.325  0.00  0.00     0.072 A 
ENDROOT
BRANCH  15  17
HETATM   17  C   UNK N   1      41.962  33.968  45.786  0.00  0.00     0.137 C 
HETATM   18  C   UNK N   1      42.944  32.771  45.803  0.00  0.00     0.031 C 
HETATM   19  C   UNK N   1      43.200  32.323  47.236  0.00  0.00     0.032 C 
HETATM   20  C   UNK N   1      43.898  33.488  47.989  0.00  0.00     0.272 C 
HETATM   21  N   UNK N   1      43.359  34.841  47.649  0.00  0.00     0.090 N 
HETATM   22  C   UNK N   1      41.986  34.763  47.130  0.00  0.00     0.299 C 
BRANCH  21  23
HETATM   23  C   UNK N   1      43.456  35.770  48.795  0.00  0.00     0.273 C 
BRANCH  23  24
HETATM   24  C   UNK N   1      42.089  35.936  49.484  0.00  0.00     0.035 C 
BRANCH  24  25
HETATM   25  C   UNK N   1      41.633  37.406  49.584  0.00  0.00    -0.009 C 
HETATM   26  C   UNK N   1      42.119  38.113  50.878  0.00  0.00     0.031 C 
HETATM   27  C   UNK N   1      41.144  39.230  51.316  0.00  0.00     0.168 C 
HETATM   28  O   UNK N   1      40.619  39.917  50.201  0.00  0.00    -0.391 OA
HETATM   29  C   UNK N   1      39.796  39.064  49.397  0.00  0.00     0.168 C 
HETATM   30  C   UNK N   1      40.110  37.544  49.502  0.00  0.00     0.031 C 
ENDBRANCH  24  25
ENDBRANCH  23  24
ENDBRANCH  21  23
ENDBRANCH  15  17
BRANCH  12  31
HETATM   31  C   UNK N   1      37.269  33.191  46.886  0.00  0.00     0.272 C 
HETATM   32  O   UNK N   1      37.023  34.217  47.504  0.00  0.00    -0.266 OA
HETATM   33  N   UNK N   1      36.510  32.069  47.140  0.00  0.00    -0.343 N 
HETATM   34  C   UNK N   1      36.545  30.852  46.340  0.00  0.00     0.152 C 
HETATM   35  C   UNK N   1      35.666  32.039  48.331  0.00  0.00     0.152 C 
HETATM   36  C   UNK N   1      36.916  29.689  47.271  0.00  0.00     0.187 C 
HETATM   37  O   UNK N   1      36.195  29.661  48.510  0.00  0.00    -0.388 OA
HETATM   38  C   UNK N   1      35.138  30.610  48.578  0.00  0.00     0.187 C 
ENDBRANCH  12  31
BRANCH   1  39
HETATM   39  O   UNK N   1      41.893  33.989  38.998  0.00  0.00    -0.356 OA
HETATM   40  C   UNK N   1      42.594  33.049  38.272  0.00  0.00     0.210 C 
ENDBRANCH   1  39
TORSDOF 6
ENDMDL
MODEL 8
REMARK VINA RESULT:      -7.6      3.076      8.621
REMARK  6 active torsions:
REMARK  status: ('A' for Active; 'I' for Inactive)
REMARK    1  A    between atoms: O_2  and  C_3 
REMARK    2  A    between atoms: C_14  and  C_15 
REMARK       I    between atoms: C_15  and  N_17 
REMARK    3  A    between atoms: N_25  and  C_26 
REMARK    4  A    between atoms: N_30  and  C_31 
REMARK    5  A    between atoms: C_31  and  C_32 
REMARK    6  A    between atoms: C_32  and  C_33 
ROOT
HETATM    1  C   UNK N   1      37.313  35.257  50.188  0.00  0.00     0.069 A 
HETATM    2  C   UNK N   1      38.206  34.217  49.869  0.00  0.00     0.038 A 
HETATM    3  C   UNK N   1      39.533  34.501  49.528  0.00  0.00     0.018 A 
HETATM    4  C   UNK N   1      40.000  35.832  49.482  0.00  0.00     0.015 A 
HETATM    5  C   UNK N   1      39.103  36.855  49.851  0.00  0.00     0.074 A 
HETATM    6  C   UNK N   1      37.776  36.573  50.185  0.00  0.00     0.061 A 
HETATM    7  S   UNK N   1      39.700  38.517  49.913  0.00  0.00     0.180 S 
HETATM    8  O   UNK N   1      38.975  39.332  50.994  0.00  0.00    -0.222 OA
HETATM    9  O   UNK N   1      39.300  39.251  48.623  0.00  0.00    -0.222 OA
HETATM   10  C   UNK N   1      41.479  38.593  50.129  0.00  0.00     0.189 C 
HETATM   11  C   UNK N   1      42.068  37.400  49.416  0.00  0.00     0.019 A 
HETATM   12  C   UNK N   1      43.341  37.295  48.865  0.00  0.00     0.126 A 
HETATM   13  N   UNK N   1      43.438  36.109  48.244  0.00  0.00    -0.292 N 
ATOM     14  HN  UNK N   1      44.268  35.769  47.758  1.00  0.00     0.187 HD
HETATM   15  N   UNK N   1      42.298  35.449  48.355  0.00  0.00    -0.284 N 
HETATM   16  C   UNK N   1      41.425  36.188  49.100  0.00  0.00     0.072 A 
ENDROOT
BRANCH  15  17
HETATM   17  C   UNK N   1      42.076  34.216  47.572  0.00  0.00     0.137 C 
HETATM   18  C   UNK N   1      42.945  33.047  48.098  0.00  0.00     0.031 C 
HETATM   19  C   UNK N   1      44.204  32.909  47.253  0.00  0.00     0.032 C 
HETATM   20  C   UNK N   1      43.777  32.537  45.807  0.00  0.00     0.272 C 
HETATM   21  N   UNK N   1      42.558  33.259  45.328  0.00  0.00     0.090 N 
HETATM   22  C   UNK N   1      42.348  34.515  46.064  0.00  0.00     0.299 C 
BRANCH  21  23
HETATM   23  C   UNK N   1      42.596  33.484  43.867  0.00  0.00     0.273 C 
BRANCH  23  24
HETATM   24  C   UNK N   1      42.705  32.148  43.109  0.00  0.00     0.035 C 
BRANCH  24  25
HETATM   25  C   UNK N   1      41.837  32.099  41.836  0.00  0.00    -0.009 C 
HETATM   26  C   UNK N   1      41.674  30.668  41.258  0.00  0.00     0.031 C 
HETATM   27  C   UNK N   1      41.466  30.693  39.727  0.00  0.00     0.168 C 
HETATM   28  O   UNK N   1      40.667  31.788  39.336  0.00  0.00    -0.391 OA
HETATM   29  C   UNK N   1      41.321  33.035  39.596  0.00  0.00     0.168 C 
HETATM   30  C   UNK N   1      42.386  33.005  40.730  0.00  0.00     0.031 C 
ENDBRANCH  24  25
ENDBRANCH  23  24
ENDBRANCH  21  23
ENDBRANCH  15  17
BRANCH  12  31
HETATM   31  C   UNK N   1      44.370  38.372  48.716  0.00  0.00     0.272 C 
HETATM   32  O   UNK N   1      44.188  39.220  47.855  0.00  0.00    -0.266 OA
HETATM   33  N   UNK N   1      45.573  38.361  49.389  0.00  0.00    -0.343 N 
HETATM   34  C   UNK N   1      45.848  37.556  50.572  0.00  0.00     0.152 C 
HETATM   35  C   UNK N   1      46.690  39.134  48.855  0.00  0.00     0.152 C 
HETATM   36  C   UNK N   1      47.060  36.666  50.263  0.00  0.00     0.187 C 
HETATM   37  O   UNK N   1      48.157  37.344  49.638  0.00  0.00    -0.388 OA
HETATM   38  C   UNK N   1      47.999  38.758  49.581  0.00  0.00     0.187 C 
ENDBRANCH  12  31
BRANCH   1  39
HETATM   39  O   UNK N   1      36.014  35.028  50.517  0.00  0.00    -0.356 OA
HETATM   40  C   UNK N   1      35.484  35.142  51.786  0.00  0.00     0.210 C 
ENDBRANCH   1  39
TORSDOF 6
ENDMDL
MODEL 9
REMARK VINA RESULT:      -7.6      2.707      8.281
REMARK  6 active torsions:
REMARK  status: ('A' for Active; 'I' for Inactive)
REMARK    1  A    between atoms: O_2  and  C_3 
REMARK    2  A    between atoms: C_14  and  C_15 
REMARK       I    between atoms: C_15  and  N_17 
REMARK    3  A    between atoms: N_25  and  C_26 
REMARK    4  A    between atoms: N_30  and  C_31 
REMARK    5  A    between atoms: C_31  and  C_32 
REMARK    6  A    between atoms: C_32  and  C_33 
ROOT
HETATM    1  C   UNK N   1      42.928  40.351  56.088  0.00  0.00     0.069 A 
HETATM    2  C   UNK N   1      43.336  40.443  54.745  0.00  0.00     0.038 A 
HETATM    3  C   UNK N   1      42.499  39.997  53.716  0.00  0.00     0.018 A 
HETATM    4  C   UNK N   1      41.238  39.433  54.002  0.00  0.00     0.015 A 
HETATM    5  C   UNK N   1      40.828  39.394  55.350  0.00  0.00     0.074 A 
HETATM    6  C   UNK N   1      41.666  39.833  56.378  0.00  0.00     0.061 A 
HETATM    7  S   UNK N   1      39.204  38.801  55.720  0.00  0.00     0.180 S 
HETATM    8  O   UNK N   1      38.624  39.496  56.960  0.00  0.00    -0.222 OA
HETATM    9  O   UNK N   1      39.289  37.335  56.174  0.00  0.00    -0.222 OA
HETATM   10  C   UNK N   1      38.093  38.941  54.319  0.00  0.00     0.189 C 
HETATM   11  C   UNK N   1      38.917  38.733  53.071  0.00  0.00     0.019 A 
HETATM   12  C   UNK N   1      38.477  38.244  51.846  0.00  0.00     0.126 A 
HETATM   13  N   UNK N   1      39.537  38.127  51.030  0.00  0.00    -0.292 N 
ATOM     14  HN  UNK N   1      39.500  37.796  50.066  1.00  0.00     0.187 HD
HETATM   15  N   UNK N   1      40.635  38.503  51.663  0.00  0.00    -0.284 N 
HETATM   16  C   UNK N   1      40.304  38.920  52.920  0.00  0.00     0.072 A 
ENDROOT
BRANCH  15  17
HETATM   17  C   UNK N   1      41.960  38.260  51.057  0.00  0.00     0.137 C 
HETATM   18  C   UNK N   1      42.302  39.333  49.995  0.00  0.00     0.031 C 
HETATM   19  C   UNK N   1      41.985  38.809  48.601  0.00  0.00     0.032 C 
HETATM   20  C   UNK N   1      42.906  37.591  48.321  0.00  0.00     0.272 C 
HETATM   21  N   UNK N   1      43.094  36.688  49.500  0.00  0.00     0.090 N 
HETATM   22  C   UNK N   1      41.990  36.816  50.462  0.00  0.00     0.299 C 
BRANCH  21  23
HETATM   23  C   UNK N   1      43.294  35.283  49.084  0.00  0.00     0.273 C 
BRANCH  23  24
HETATM   24  C   UNK N   1      42.627  35.013  47.724  0.00  0.00     0.035 C 
BRANCH  24  25
HETATM   25  C   UNK N   1      42.871  33.583  47.201  0.00  0.00    -0.009 C 
HETATM   26  C   UNK N   1      43.519  32.645  48.254  0.00  0.00     0.031 C 
HETATM   27  C   UNK N   1      44.377  31.546  47.586  0.00  0.00     0.168 C 
HETATM   28  O   UNK N   1      43.780  31.086  46.393  0.00  0.00    -0.391 OA
HETATM   29  C   UNK N   1      43.735  32.114  45.397  0.00  0.00     0.168 C 
HETATM   30  C   UNK N   1      43.743  33.571  45.942  0.00  0.00     0.031 C 
ENDBRANCH  24  25
ENDBRANCH  23  24
ENDBRANCH  21  23
ENDBRANCH  15  17
BRANCH  12  31
HETATM   31  C   UNK N   1      37.133  37.675  51.513  0.00  0.00     0.272 C 
HETATM   32  O   UNK N   1      36.320  38.409  50.971  0.00  0.00    -0.266 OA
HETATM   33  N   UNK N   1      36.722  36.426  51.929  0.00  0.00    -0.343 N 
HETATM   34  C   UNK N   1      37.618  35.375  52.392  0.00  0.00     0.152 C 
HETATM   35  C   UNK N   1      35.292  36.139  51.999  0.00  0.00     0.152 C 
HETATM   36  C   UNK N   1      37.186  34.980  53.811  0.00  0.00     0.187 C 
HETATM   37  O   UNK N   1      35.775  34.785  53.975  0.00  0.00    -0.388 OA
HETATM   38  C   UNK N   1      35.048  34.814  52.752  0.00  0.00     0.187 C 
ENDBRANCH  12  31
BRANCH   1  39
HETATM   39  O   UNK N   1      43.711  40.764  57.119  0.00  0.00    -0.356 OA
HETATM   40  C   UNK N   1      43.290  40.927  58.422  0.00  0.00     0.210 C 
ENDBRANCH   1  39
TORSDOF 6
ENDMDL
