MODEL 1
REMARK VINA RESULT:      -8.7      0.000      0.000
REMARK  5 active torsions:
REMARK  status: ('A' for Active; 'I' for Inactive)
REMARK    1  A    between atoms: N_5  and  C_6 
REMARK    2  A    between atoms: C_6  and  C_7 
REMARK    3  A    between atoms: C_7  and  N_8 
REMARK    4  A    between atoms: C_12  and  N_13 
REMARK    5  A    between atoms: C_16  and  C_17 
REMARK       I    between atoms: C_17  and  N_19 
ROOT
HETATM    1  N   UNK N   1      41.271  34.966  49.003  0.00  0.00    -0.284 N 
HETATM    2  N   UNK N   1      40.093  34.416  48.739  0.00  0.00    -0.292 N 
ATOM      3  HN  UNK N   1      39.938  33.638  48.097  1.00  0.00     0.187 HD
HETATM    4  C   UNK N   1      39.136  35.040  49.443  0.00  0.00     0.126 A 
HETATM    5  C   UNK N   1      39.727  36.029  50.211  0.00  0.00     0.019 A 
HETATM    6  C   UNK N   1      41.099  35.963  49.919  0.00  0.00     0.072 A 
HETATM    7  C   UNK N   1      42.144  36.882  50.525  0.00  0.00     0.014 A 
HETATM    8  C   UNK N   1      43.515  36.547  50.606  0.00  0.00     0.015 A 
HETATM    9  C   UNK N   1      44.436  37.440  51.165  0.00  0.00     0.001 A 
HETATM   10  C   UNK N   1      44.013  38.672  51.660  0.00  0.00     0.002 A 
HETATM   11  C   UNK N   1      42.663  39.010  51.625  0.00  0.00     0.024 A 
HETATM   12  C   UNK N   1      41.736  38.121  51.073  0.00  0.00     0.072 A 
HETATM   13  S   UNK N   1      40.006  38.508  51.083  0.00  0.00     0.180 S 
HETATM   14  O   UNK N   1      39.642  39.431  52.256  0.00  0.00    -0.222 OA
HETATM   15  O   UNK N   1      39.653  39.360  49.855  0.00  0.00    -0.222 OA
HETATM   16  C   UNK N   1      39.024  37.009  51.109  0.00  0.00     0.189 C 
ENDROOT
BRANCH   1  17
HETATM   17  C   UNK N   1      42.477  34.526  48.277  0.00  0.00     0.137 C 
HETATM   18  C   UNK N   1      42.719  33.034  48.526  0.00  0.00     0.031 C 
HETATM   19  C   UNK N   1      44.016  32.572  47.827  0.00  0.00     0.032 C 
HETATM   20  C   UNK N   1      44.354  33.424  46.583  0.00  0.00     0.272 C 
HETATM   21  N   UNK N   1      43.145  33.879  45.878  0.00  0.00     0.092 N 
HETATM   22  C   UNK N   1      42.325  34.790  46.734  0.00  0.00     0.299 C 
BRANCH  21  23
HETATM   23  C   UNK N   1      42.355  32.760  45.309  0.00  0.00     0.302 C 
BRANCH  23  24
HETATM   24  C   UNK N   1      42.079  32.958  43.805  0.00  0.00     0.302 C 
BRANCH  24  25
HETATM   25  N   UNK N   1      40.776  33.574  43.471  0.00  0.00     0.095 N 
HETATM   26  C   UNK N   1      39.669  33.220  44.371  0.00  0.00     0.309 C 
HETATM   27  C   UNK N   1      38.339  33.751  43.773  0.00  0.00     0.080 C 
HETATM   28  C   UNK N   1      37.972  32.988  42.476  0.00  0.00     0.047 C 
HETATM   29  C   UNK N   1      37.214  33.517  44.793  0.00  0.00     0.047 C 
HETATM   30  O   UNK N   1      38.415  35.159  43.547  0.00  0.00    -0.377 OA
HETATM   31  C   UNK N   1      39.517  35.530  42.732  0.00  0.00     0.199 C 
HETATM   32  C   UNK N   1      40.839  35.036  43.314  0.00  0.00     0.298 C 
ENDBRANCH  24  25
ENDBRANCH  23  24
ENDBRANCH  21  23
ENDBRANCH   1  17
BRANCH   4  33
HETATM   33  C   UNK N   1      37.678  34.705  49.391  0.00  0.00     0.272 C 
HETATM   34  O   UNK N   1      37.071  34.983  48.365  0.00  0.00    -0.266 OA
HETATM   35  N   UNK N   1      37.004  34.073  50.418  0.00  0.00    -0.343 N 
HETATM   36  C   UNK N   1      35.588  33.741  50.206  0.00  0.00     0.152 C 
HETATM   37  C   UNK N   1      37.731  33.538  51.579  0.00  0.00     0.152 C 
HETATM   38  C   UNK N   1      34.928  33.075  51.411  0.00  0.00     0.187 C 
HETATM   39  O   UNK N   1      35.800  32.119  51.974  0.00  0.00    -0.388 OA
HETATM   40  C   UNK N   1      36.831  32.843  52.610  0.00  0.00     0.187 C 
ENDBRANCH   4  33
TORSDOF 5
ENDMDL
MODEL 2
REMARK VINA RESULT:      -8.7      2.914      5.116
REMARK  5 active torsions:
REMARK  status: ('A' for Active; 'I' for Inactive)
REMARK    1  A    between atoms: N_5  and  C_6 
REMARK    2  A    between atoms: C_6  and  C_7 
REMARK    3  A    between atoms: C_7  and  N_8 
REMARK    4  A    between atoms: C_12  and  N_13 
REMARK    5  A    between atoms: C_16  and  C_17 
REMARK       I    between atoms: C_17  and  N_19 
ROOT
HETATM    1  N   UNK N   1      41.719  38.720  51.812  0.00  0.00    -0.284 N 
HETATM    2  N   UNK N   1      40.815  38.307  50.933  0.00  0.00    -0.292 N 
ATOM      3  HN  UNK N   1      41.020  37.987  49.986  1.00  0.00     0.187 HD
HETATM    4  C   UNK N   1      39.591  38.376  51.478  0.00  0.00     0.126 A 
HETATM    5  C   UNK N   1      39.712  38.840  52.777  0.00  0.00     0.019 A 
HETATM    6  C   UNK N   1      41.086  39.050  52.976  0.00  0.00     0.072 A 
HETATM    7  C   UNK N   1      41.690  39.577  54.265  0.00  0.00     0.014 A 
HETATM    8  C   UNK N   1      43.037  39.362  54.632  0.00  0.00     0.015 A 
HETATM    9  C   UNK N   1      43.543  39.883  55.829  0.00  0.00     0.001 A 
HETATM   10  C   UNK N   1      42.721  40.617  56.682  0.00  0.00     0.002 A 
HETATM   11  C   UNK N   1      41.381  40.813  56.359  0.00  0.00     0.024 A 
HETATM   12  C   UNK N   1      40.867  40.291  55.168  0.00  0.00     0.072 A 
HETATM   13  S   UNK N   1      39.148  40.474  54.777  0.00  0.00     0.180 S 
HETATM   14  O   UNK N   1      38.290  40.587  56.046  0.00  0.00    -0.222 OA
HETATM   15  O   UNK N   1      38.909  41.821  54.080  0.00  0.00    -0.222 OA
HETATM   16  C   UNK N   1      38.590  39.123  53.738  0.00  0.00     0.189 C 
ENDROOT
BRANCH   1  17
HETATM   17  C   UNK N   1      43.137  38.836  51.423  0.00  0.00     0.137 C 
HETATM   18  C   UNK N   1      43.944  37.694  52.046  0.00  0.00     0.031 C 
HETATM   19  C   UNK N   1      45.442  37.839  51.704  0.00  0.00     0.032 C 
HETATM   20  C   UNK N   1      45.674  38.588  50.372  0.00  0.00     0.272 C 
HETATM   21  N   UNK N   1      44.618  38.308  49.386  0.00  0.00     0.092 N 
HETATM   22  C   UNK N   1      43.288  38.802  49.858  0.00  0.00     0.299 C 
BRANCH  21  23
HETATM   23  C   UNK N   1      44.586  36.886  48.966  0.00  0.00     0.302 C 
BRANCH  23  24
HETATM   24  C   UNK N   1      43.159  36.426  48.603  0.00  0.00     0.302 C 
BRANCH  24  25
HETATM   25  N   UNK N   1      43.073  35.176  47.817  0.00  0.00     0.095 N 
HETATM   26  C   UNK N   1      43.979  34.102  48.250  0.00  0.00     0.309 C 
HETATM   27  C   UNK N   1      43.936  32.953  47.208  0.00  0.00     0.080 C 
HETATM   28  C   UNK N   1      44.567  33.400  45.866  0.00  0.00     0.047 C 
HETATM   29  C   UNK N   1      44.761  31.773  47.746  0.00  0.00     0.047 C 
HETATM   30  O   UNK N   1      42.600  32.484  47.027  0.00  0.00    -0.377 OA
HETATM   31  C   UNK N   1      41.694  33.519  46.672  0.00  0.00     0.199 C 
HETATM   32  C   UNK N   1      41.703  34.651  47.696  0.00  0.00     0.298 C 
ENDBRANCH  24  25
ENDBRANCH  23  24
ENDBRANCH  21  23
ENDBRANCH   1  17
BRANCH   4  33
HETATM   33  C   UNK N   1      38.320  38.007  50.779  0.00  0.00     0.272 C 
HETATM   34  O   UNK N   1      37.489  38.890  50.614  0.00  0.00    -0.266 OA
HETATM   35  N   UNK N   1      38.061  36.743  50.287  0.00  0.00    -0.343 N 
HETATM   36  C   UNK N   1      36.800  36.537  49.559  0.00  0.00     0.152 C 
HETATM   37  C   UNK N   1      39.105  35.709  50.278  0.00  0.00     0.152 C 
HETATM   38  C   UNK N   1      36.594  35.100  49.086  0.00  0.00     0.187 C 
HETATM   39  O   UNK N   1      37.801  34.583  48.566  0.00  0.00    -0.388 OA
HETATM   40  C   UNK N   1      38.654  34.373  49.671  0.00  0.00     0.187 C 
ENDBRANCH   4  33
TORSDOF 5
ENDMDL
MODEL 3
REMARK VINA RESULT:      -8.4      4.568      8.846
REMARK  5 active torsions:
REMARK  status: ('A' for Active; 'I' for Inactive)
REMARK    1  A    between atoms: N_5  and  C_6 
REMARK    2  A    between atoms: C_6  and  C_7 
REMARK    3  A    between atoms: C_7  and  N_8 
REMARK    4  A    between atoms: C_12  and  N_13 
REMARK    5  A    between atoms: C_16  and  C_17 
REMARK       I    between atoms: C_17  and  N_19 
ROOT
HETATM    1  N   UNK N   1      41.506  38.716  52.550  0.00  0.00    -0.284 N 
HETATM    2  N   UNK N   1      40.197  38.810  52.747  0.00  0.00    -0.292 N 
ATOM      3  HN  UNK N   1      39.754  39.203  53.577  1.00  0.00     0.187 HD
HETATM    4  C   UNK N   1      39.545  38.308  51.686  0.00  0.00     0.126 A 
HETATM    5  C   UNK N   1      40.478  37.886  50.754  0.00  0.00     0.019 A 
HETATM    6  C   UNK N   1      41.731  38.161  51.324  0.00  0.00     0.072 A 
HETATM    7  C   UNK N   1      43.058  37.847  50.657  0.00  0.00     0.014 A 
HETATM    8  C   UNK N   1      44.263  38.508  50.984  0.00  0.00     0.015 A 
HETATM    9  C   UNK N   1      45.460  38.168  50.343  0.00  0.00     0.001 A 
HETATM   10  C   UNK N   1      45.480  37.175  49.365  0.00  0.00     0.002 A 
HETATM   11  C   UNK N   1      44.299  36.534  49.001  0.00  0.00     0.024 A 
HETATM   12  C   UNK N   1      43.098  36.873  49.632  0.00  0.00     0.072 A 
HETATM   13  S   UNK N   1      41.577  36.114  49.131  0.00  0.00     0.180 S 
HETATM   14  O   UNK N   1      41.621  35.681  47.657  0.00  0.00    -0.222 OA
HETATM   15  O   UNK N   1      41.385  34.783  49.873  0.00  0.00    -0.222 OA
HETATM   16  C   UNK N   1      40.193  37.210  49.442  0.00  0.00     0.189 C 
ENDROOT
BRANCH   1  17
HETATM   17  C   UNK N   1      42.447  39.108  53.616  0.00  0.00     0.137 C 
HETATM   18  C   UNK N   1      42.799  40.592  53.481  0.00  0.00     0.031 C 
HETATM   19  C   UNK N   1      43.836  41.002  54.548  0.00  0.00     0.032 C 
HETATM   20  C   UNK N   1      43.754  40.128  55.820  0.00  0.00     0.272 C 
HETATM   21  N   UNK N   1      42.375  39.709  56.117  0.00  0.00     0.092 N 
HETATM   22  C   UNK N   1      41.826  38.835  55.035  0.00  0.00     0.299 C 
BRANCH  21  23
HETATM   23  C   UNK N   1      41.484  40.850  56.441  0.00  0.00     0.302 C 
BRANCH  23  24
HETATM   24  C   UNK N   1      40.259  40.407  57.265  0.00  0.00     0.302 C 
BRANCH  24  25
HETATM   25  N   UNK N   1      38.965  40.992  56.851  0.00  0.00     0.095 N 
HETATM   26  C   UNK N   1      38.378  40.413  55.634  0.00  0.00     0.309 C 
HETATM   27  C   UNK N   1      37.157  41.267  55.204  0.00  0.00     0.080 C 
HETATM   28  C   UNK N   1      37.605  42.669  54.722  0.00  0.00     0.047 C 
HETATM   29  C   UNK N   1      36.457  40.566  54.028  0.00  0.00     0.047 C 
HETATM   30  O   UNK N   1      36.205  41.358  56.266  0.00  0.00    -0.377 OA
HETATM   31  C   UNK N   1      36.768  41.855  57.471  0.00  0.00     0.199 C 
HETATM   32  C   UNK N   1      37.959  41.015  57.925  0.00  0.00     0.298 C 
ENDBRANCH  24  25
ENDBRANCH  23  24
ENDBRANCH  21  23
ENDBRANCH   1  17
BRANCH   4  33
HETATM   33  C   UNK N   1      38.056  38.229  51.555  0.00  0.00     0.272 C 
HETATM   34  O   UNK N   1      37.496  39.119  50.929  0.00  0.00    -0.266 OA
HETATM   35  N   UNK N   1      37.299  37.195  52.072  0.00  0.00    -0.343 N 
HETATM   36  C   UNK N   1      35.853  37.208  51.811  0.00  0.00     0.152 C 
HETATM   37  C   UNK N   1      37.943  36.007  52.651  0.00  0.00     0.152 C 
HETATM   38  C   UNK N   1      35.104  36.042  52.452  0.00  0.00     0.187 C 
HETATM   39  O   UNK N   1      35.839  34.848  52.291  0.00  0.00    -0.388 OA
HETATM   40  C   UNK N   1      36.953  34.945  53.152  0.00  0.00     0.187 C 
ENDBRANCH   4  33
TORSDOF 5
ENDMDL
MODEL 4
REMARK VINA RESULT:      -8.4      4.482      8.686
REMARK  5 active torsions:
REMARK  status: ('A' for Active; 'I' for Inactive)
REMARK    1  A    between atoms: N_5  and  C_6 
REMARK    2  A    between atoms: C_6  and  C_7 
REMARK    3  A    between atoms: C_7  and  N_8 
REMARK    4  A    between atoms: C_12  and  N_13 
REMARK    5  A    between atoms: C_16  and  C_17 
REMARK       I    between atoms: C_17  and  N_19 
ROOT
HETATM    1  N   UNK N   1      40.226  38.302  51.367  0.00  0.00    -0.284 N 
HETATM    2  N   UNK N   1      40.432  39.310  52.204  0.00  0.00    -0.292 N 
ATOM      3  HN  UNK N   1      41.200  39.978  52.143  1.00  0.00     0.187 HD
HETATM    4  C   UNK N   1      39.475  39.316  53.146  0.00  0.00     0.126 A 
HETATM    5  C   UNK N   1      38.602  38.272  52.894  0.00  0.00     0.019 A 
HETATM    6  C   UNK N   1      39.096  37.635  51.745  0.00  0.00     0.072 A 
HETATM    7  C   UNK N   1      38.460  36.415  51.106  0.00  0.00     0.014 A 
HETATM    8  C   UNK N   1      38.656  36.060  49.752  0.00  0.00     0.015 A 
HETATM    9  C   UNK N   1      38.052  34.914  49.220  0.00  0.00     0.001 A 
HETATM   10  C   UNK N   1      37.240  34.109  50.017  0.00  0.00     0.002 A 
HETATM   11  C   UNK N   1      37.004  34.458  51.344  0.00  0.00     0.024 A 
HETATM   12  C   UNK N   1      37.598  35.603  51.881  0.00  0.00     0.072 A 
HETATM   13  S   UNK N   1      37.252  36.096  53.548  0.00  0.00     0.180 S 
HETATM   14  O   UNK N   1      35.863  35.619  54.000  0.00  0.00    -0.222 OA
HETATM   15  O   UNK N   1      38.195  35.369  54.517  0.00  0.00    -0.222 OA
HETATM   16  C   UNK N   1      37.416  37.872  53.728  0.00  0.00     0.189 C 
ENDROOT
BRANCH   1  17
HETATM   17  C   UNK N   1      41.199  38.015  50.296  0.00  0.00     0.137 C 
HETATM   18  C   UNK N   1      41.986  39.283  49.953  0.00  0.00     0.031 C 
HETATM   19  C   UNK N   1      42.962  39.017  48.787  0.00  0.00     0.032 C 
HETATM   20  C   UNK N   1      43.407  37.539  48.715  0.00  0.00     0.272 C 
HETATM   21  N   UNK N   1      43.517  36.927  50.049  0.00  0.00     0.092 N 
HETATM   22  C   UNK N   1      42.190  36.876  50.735  0.00  0.00     0.299 C 
BRANCH  21  23
HETATM   23  C   UNK N   1      44.572  37.551  50.884  0.00  0.00     0.302 C 
BRANCH  23  24
HETATM   24  C   UNK N   1      44.223  37.500  52.385  0.00  0.00     0.302 C 
BRANCH  24  25
HETATM   25  N   UNK N   1      44.615  38.690  53.172  0.00  0.00     0.095 N 
HETATM   26  C   UNK N   1      43.787  38.956  54.356  0.00  0.00     0.309 C 
HETATM   27  C   UNK N   1      44.172  40.340  54.943  0.00  0.00     0.080 C 
HETATM   28  C   UNK N   1      43.758  41.483  53.983  0.00  0.00     0.047 C 
HETATM   29  C   UNK N   1      43.416  40.539  56.267  0.00  0.00     0.047 C 
HETATM   30  O   UNK N   1      45.567  40.390  55.244  0.00  0.00    -0.377 OA
HETATM   31  C   UNK N   1      46.385  40.072  54.128  0.00  0.00     0.199 C 
HETATM   32  C   UNK N   1      46.038  38.703  53.548  0.00  0.00     0.298 C 
ENDBRANCH  24  25
ENDBRANCH  23  24
ENDBRANCH  21  23
ENDBRANCH   1  17
BRANCH   4  33
HETATM   33  C   UNK N   1      39.388  40.299  54.272  0.00  0.00     0.272 C 
HETATM   34  O   UNK N   1      38.959  41.415  54.015  0.00  0.00    -0.266 OA
HETATM   35  N   UNK N   1      39.733  39.997  55.575  0.00  0.00    -0.343 N 
HETATM   36  C   UNK N   1      39.533  41.037  56.595  0.00  0.00     0.152 C 
HETATM   37  C   UNK N   1      40.057  38.618  55.969  0.00  0.00     0.152 C 
HETATM   38  C   UNK N   1      39.975  40.616  57.994  0.00  0.00     0.187 C 
HETATM   39  O   UNK N   1      39.568  39.289  58.251  0.00  0.00    -0.388 OA
HETATM   40  C   UNK N   1      40.389  38.458  57.459  0.00  0.00     0.187 C 
ENDBRANCH   4  33
TORSDOF 5
ENDMDL
MODEL 5
REMARK VINA RESULT:      -8.4      1.284      1.793
REMARK  5 active torsions:
REMARK  status: ('A' for Active; 'I' for Inactive)
REMARK    1  A    between atoms: N_5  and  C_6 
REMARK    2  A    between atoms: C_6  and  C_7 
REMARK    3  A    between atoms: C_7  and  N_8 
REMARK    4  A    between atoms: C_12  and  N_13 
REMARK    5  A    between atoms: C_16  and  C_17 
REMARK       I    between atoms: C_17  and  N_19 
ROOT
HETATM    1  N   UNK N   1      41.217  34.921  48.933  0.00  0.00    -0.284 N 
HETATM    2  N   UNK N   1      40.057  34.336  48.662  0.00  0.00    -0.292 N 
ATOM      3  HN  UNK N   1      39.928  33.557  48.017  1.00  0.00     0.187 HD
HETATM    4  C   UNK N   1      39.079  34.928  49.365  0.00  0.00     0.126 A 
HETATM    5  C   UNK N   1      39.637  35.931  50.140  0.00  0.00     0.019 A 
HETATM    6  C   UNK N   1      41.011  35.908  49.854  0.00  0.00     0.072 A 
HETATM    7  C   UNK N   1      42.026  36.854  50.468  0.00  0.00     0.014 A 
HETATM    8  C   UNK N   1      43.406  36.561  50.552  0.00  0.00     0.015 A 
HETATM    9  C   UNK N   1      44.297  37.479  51.119  0.00  0.00     0.001 A 
HETATM   10  C   UNK N   1      43.836  38.695  51.618  0.00  0.00     0.002 A 
HETATM   11  C   UNK N   1      42.476  38.992  51.579  0.00  0.00     0.024 A 
HETATM   12  C   UNK N   1      41.578  38.078  51.019  0.00  0.00     0.072 A 
HETATM   13  S   UNK N   1      39.838  38.413  51.024  0.00  0.00     0.180 S 
HETATM   14  O   UNK N   1      39.441  39.319  52.200  0.00  0.00    -0.222 OA
HETATM   15  O   UNK N   1      39.463  39.260  49.799  0.00  0.00    -0.222 OA
HETATM   16  C   UNK N   1      38.901  36.885  51.040  0.00  0.00     0.189 C 
ENDROOT
BRANCH   1  17
HETATM   17  C   UNK N   1      42.439  34.520  48.210  0.00  0.00     0.137 C 
HETATM   18  C   UNK N   1      42.749  33.047  48.489  0.00  0.00     0.031 C 
HETATM   19  C   UNK N   1      44.062  32.629  47.793  0.00  0.00     0.032 C 
HETATM   20  C   UNK N   1      44.356  33.469  46.530  0.00  0.00     0.272 C 
HETATM   21  N   UNK N   1      43.125  33.854  45.822  0.00  0.00     0.092 N 
HETATM   22  C   UNK N   1      42.268  34.744  46.663  0.00  0.00     0.299 C 
BRANCH  21  23
HETATM   23  C   UNK N   1      42.383  32.688  45.281  0.00  0.00     0.302 C 
BRANCH  23  24
HETATM   24  C   UNK N   1      40.928  33.049  44.920  0.00  0.00     0.302 C 
BRANCH  24  25
HETATM   25  N   UNK N   1      40.545  32.821  43.510  0.00  0.00     0.095 N 
HETATM   26  C   UNK N   1      41.235  31.706  42.848  0.00  0.00     0.309 C 
HETATM   27  C   UNK N   1      40.902  31.731  41.332  0.00  0.00     0.080 C 
HETATM   28  C   UNK N   1      41.535  32.968  40.648  0.00  0.00     0.047 C 
HETATM   29  C   UNK N   1      41.497  30.474  40.678  0.00  0.00     0.047 C 
HETATM   30  O   UNK N   1      39.490  31.685  41.125  0.00  0.00    -0.377 OA
HETATM   31  C   UNK N   1      38.796  32.716  41.810  0.00  0.00     0.199 C 
HETATM   32  C   UNK N   1      39.093  32.696  43.308  0.00  0.00     0.298 C 
ENDBRANCH  24  25
ENDBRANCH  23  24
ENDBRANCH  21  23
ENDBRANCH   1  17
BRANCH   4  33
HETATM   33  C   UNK N   1      37.632  34.549  49.306  0.00  0.00     0.272 C 
HETATM   34  O   UNK N   1      37.015  34.835  48.289  0.00  0.00    -0.266 OA
HETATM   35  N   UNK N   1      36.980  33.870  50.317  0.00  0.00    -0.343 N 
HETATM   36  C   UNK N   1      35.575  33.499  50.097  0.00  0.00     0.152 C 
HETATM   37  C   UNK N   1      37.725  33.327  51.462  0.00  0.00     0.152 C 
HETATM   38  C   UNK N   1      34.937  32.782  51.285  0.00  0.00     0.187 C 
HETATM   39  O   UNK N   1      35.840  31.839  51.822  0.00  0.00    -0.388 OA
HETATM   40  C   UNK N   1      36.849  32.578  52.476  0.00  0.00     0.187 C 
ENDBRANCH   4  33
TORSDOF 5
ENDMDL
MODEL 6
REMARK VINA RESULT:      -8.3      1.783      2.767
REMARK  5 active torsions:
REMARK  status: ('A' for Active; 'I' for Inactive)
REMARK    1  A    between atoms: N_5  and  C_6 
REMARK    2  A    between atoms: C_6  and  C_7 
REMARK    3  A    between atoms: C_7  and  N_8 
REMARK    4  A    between atoms: C_12  and  N_13 
REMARK    5  A    between atoms: C_16  and  C_17 
REMARK       I    between atoms: C_17  and  N_19 
ROOT
HETATM    1  N   UNK N   1      41.569  34.609  48.455  0.00  0.00    -0.284 N 
HETATM    2  N   UNK N   1      40.464  33.960  48.113  0.00  0.00    -0.292 N 
ATOM      3  HN  UNK N   1      40.429  33.126  47.526  1.00  0.00     0.187 HD
HETATM    4  C   UNK N   1      39.397  34.570  48.654  0.00  0.00     0.126 A 
HETATM    5  C   UNK N   1      39.838  35.654  49.395  0.00  0.00     0.019 A 
HETATM    6  C   UNK N   1      41.235  35.659  49.260  0.00  0.00     0.072 A 
HETATM    7  C   UNK N   1      42.149  36.691  49.896  0.00  0.00     0.014 A 
HETATM    8  C   UNK N   1      43.519  36.458  50.152  0.00  0.00     0.015 A 
HETATM    9  C   UNK N   1      44.316  37.453  50.730  0.00  0.00     0.001 A 
HETATM   10  C   UNK N   1      43.767  38.688  51.071  0.00  0.00     0.002 A 
HETATM   11  C   UNK N   1      42.412  38.929  50.861  0.00  0.00     0.024 A 
HETATM   12  C   UNK N   1      41.608  37.938  50.289  0.00  0.00     0.072 A 
HETATM   13  S   UNK N   1      39.869  38.206  50.080  0.00  0.00     0.180 S 
HETATM   14  O   UNK N   1      39.319  39.189  51.125  0.00  0.00    -0.222 OA
HETATM   15  O   UNK N   1      39.606  38.934  48.754  0.00  0.00    -0.222 OA
HETATM   16  C   UNK N   1      38.981  36.649  50.126  0.00  0.00     0.189 C 
ENDROOT
BRANCH   1  17
HETATM   17  C   UNK N   1      42.874  34.197  47.903  0.00  0.00     0.137 C 
HETATM   18  C   UNK N   1      43.135  32.724  48.228  0.00  0.00     0.031 C 
HETATM   19  C   UNK N   1      44.526  32.294  47.716  0.00  0.00     0.032 C 
HETATM   20  C   UNK N   1      44.991  33.125  46.499  0.00  0.00     0.272 C 
HETATM   21  N   UNK N   1      43.868  33.514  45.630  0.00  0.00     0.092 N 
HETATM   22  C   UNK N   1      42.913  34.414  46.346  0.00  0.00     0.299 C 
BRANCH  21  23
HETATM   23  C   UNK N   1      43.198  32.349  45.001  0.00  0.00     0.302 C 
BRANCH  23  24
HETATM   24  C   UNK N   1      41.707  32.625  44.723  0.00  0.00     0.302 C 
BRANCH  24  25
HETATM   25  N   UNK N   1      41.342  32.781  43.298  0.00  0.00     0.095 N 
HETATM   26  C   UNK N   1      40.714  34.064  42.951  0.00  0.00     0.309 C 
HETATM   27  C   UNK N   1      40.189  33.993  41.492  0.00  0.00     0.080 C 
HETATM   28  C   UNK N   1      39.005  33.001  41.378  0.00  0.00     0.047 C 
HETATM   29  C   UNK N   1      39.679  35.385  41.086  0.00  0.00     0.047 C 
HETATM   30  O   UNK N   1      41.245  33.653  40.592  0.00  0.00    -0.377 OA
HETATM   31  C   UNK N   1      41.909  32.449  40.947  0.00  0.00     0.199 C 
HETATM   32  C   UNK N   1      42.452  32.506  42.373  0.00  0.00     0.298 C 
ENDBRANCH  24  25
ENDBRANCH  23  24
ENDBRANCH  21  23
ENDBRANCH   1  17
BRANCH   4  33
HETATM   33  C   UNK N   1      37.978  34.132  48.473  0.00  0.00     0.272 C 
HETATM   34  O   UNK N   1      37.206  34.318  49.405  0.00  0.00    -0.266 OA
HETATM   35  N   UNK N   1      37.497  33.568  47.308  0.00  0.00    -0.343 N 
HETATM   36  C   UNK N   1      36.064  33.247  47.243  0.00  0.00     0.152 C 
HETATM   37  C   UNK N   1      38.330  33.512  46.098  0.00  0.00     0.152 C 
HETATM   38  C   UNK N   1      35.640  32.598  45.927  0.00  0.00     0.187 C 
HETATM   39  O   UNK N   1      36.268  33.248  44.842  0.00  0.00    -0.388 OA
HETATM   40  C   UNK N   1      37.629  32.878  44.888  0.00  0.00     0.187 C 
ENDBRANCH   4  33
TORSDOF 5
ENDMDL
MODEL 7
REMARK VINA RESULT:      -8.2      5.352      9.822
REMARK  5 active torsions:
REMARK  status: ('A' for Active; 'I' for Inactive)
REMARK    1  A    between atoms: N_5  and  C_6 
REMARK    2  A    between atoms: C_6  and  C_7 
REMARK    3  A    between atoms: C_7  and  N_8 
REMARK    4  A    between atoms: C_12  and  N_13 
REMARK    5  A    between atoms: C_16  and  C_17 
REMARK       I    between atoms: C_17  and  N_19 
ROOT
HETATM    1  N   UNK N   1      41.956  39.143  53.545  0.00  0.00    -0.284 N 
HETATM    2  N   UNK N   1      40.763  39.137  52.964  0.00  0.00    -0.292 N 
ATOM      3  HN  UNK N   1      39.873  39.258  53.447  1.00  0.00     0.187 HD
HETATM    4  C   UNK N   1      40.906  38.947  51.642  0.00  0.00     0.126 A 
HETATM    5  C   UNK N   1      42.257  38.842  51.356  0.00  0.00     0.019 A 
HETATM    6  C   UNK N   1      42.915  38.975  52.588  0.00  0.00     0.072 A 
HETATM    7  C   UNK N   1      44.421  38.907  52.762  0.00  0.00     0.014 A 
HETATM    8  C   UNK N   1      45.100  39.479  53.862  0.00  0.00     0.015 A 
HETATM    9  C   UNK N   1      46.491  39.375  53.975  0.00  0.00     0.001 A 
HETATM   10  C   UNK N   1      47.231  38.710  52.998  0.00  0.00     0.002 A 
HETATM   11  C   UNK N   1      46.589  38.169  51.887  0.00  0.00     0.024 A 
HETATM   12  C   UNK N   1      45.200  38.275  51.764  0.00  0.00     0.072 A 
HETATM   13  S   UNK N   1      44.378  37.651  50.324  0.00  0.00     0.180 S 
HETATM   14  O   UNK N   1      45.302  37.667  49.096  0.00  0.00    -0.222 OA
HETATM   15  O   UNK N   1      44.070  36.157  50.501  0.00  0.00    -0.222 OA
HETATM   16  C   UNK N   1      42.870  38.569  50.011  0.00  0.00     0.189 C 
ENDROOT
BRANCH   1  17
HETATM   17  C   UNK N   1      42.067  39.234  55.013  0.00  0.00     0.137 C 
HETATM   18  C   UNK N   1      42.502  40.646  55.415  0.00  0.00     0.031 C 
HETATM   19  C   UNK N   1      42.688  40.740  56.945  0.00  0.00     0.032 C 
HETATM   20  C   UNK N   1      41.802  39.734  57.712  0.00  0.00     0.272 C 
HETATM   21  N   UNK N   1      40.510  39.510  57.043  0.00  0.00     0.092 N 
HETATM   22  C   UNK N   1      40.695  38.885  55.698  0.00  0.00     0.299 C 
BRANCH  21  23
HETATM   23  C   UNK N   1      39.666  40.729  56.999  0.00  0.00     0.302 C 
BRANCH  23  24
HETATM   24  C   UNK N   1      38.404  40.523  56.137  0.00  0.00     0.302 C 
BRANCH  24  25
HETATM   25  N   UNK N   1      37.309  41.489  56.370  0.00  0.00     0.095 N 
HETATM   26  C   UNK N   1      37.672  42.902  56.189  0.00  0.00     0.309 C 
HETATM   27  C   UNK N   1      36.501  43.794  56.680  0.00  0.00     0.080 C 
HETATM   28  C   UNK N   1      36.331  43.688  58.216  0.00  0.00     0.047 C 
HETATM   29  C   UNK N   1      36.825  45.258  56.342  0.00  0.00     0.047 C 
HETATM   30  O   UNK N   1      35.293  43.461  55.996  0.00  0.00    -0.377 OA
HETATM   31  C   UNK N   1      34.957  42.086  56.103  0.00  0.00     0.199 C 
HETATM   32  C   UNK N   1      36.088  41.190  55.605  0.00  0.00     0.298 C 
ENDBRANCH  24  25
ENDBRANCH  23  24
ENDBRANCH  21  23
ENDBRANCH   1  17
BRANCH   4  33
HETATM   33  C   UNK N   1      39.778  38.867  50.662  0.00  0.00     0.272 C 
HETATM   34  O   UNK N   1      39.647  39.794  49.875  0.00  0.00    -0.266 OA
HETATM   35  N   UNK N   1      38.912  37.793  50.584  0.00  0.00    -0.343 N 
HETATM   36  C   UNK N   1      37.890  37.814  49.527  0.00  0.00     0.152 C 
HETATM   37  C   UNK N   1      39.153  36.572  51.366  0.00  0.00     0.152 C 
HETATM   38  C   UNK N   1      36.964  36.600  49.546  0.00  0.00     0.187 C 
HETATM   39  O   UNK N   1      37.711  35.425  49.783  0.00  0.00    -0.388 OA
HETATM   40  C   UNK N   1      38.109  35.470  51.136  0.00  0.00     0.187 C 
ENDBRANCH   4  33
TORSDOF 5
ENDMDL
MODEL 8
REMARK VINA RESULT:      -8.2      4.653      9.125
REMARK  5 active torsions:
REMARK  status: ('A' for Active; 'I' for Inactive)
REMARK    1  A    between atoms: N_5  and  C_6 
REMARK    2  A    between atoms: C_6  and  C_7 
REMARK    3  A    between atoms: C_7  and  N_8 
REMARK    4  A    between atoms: C_12  and  N_13 
REMARK    5  A    between atoms: C_16  and  C_17 
REMARK       I    between atoms: C_17  and  N_19 
ROOT
HETATM    1  N   UNK N   1      41.471  38.765  52.489  0.00  0.00    -0.284 N 
HETATM    2  N   UNK N   1      40.162  38.851  52.686  0.00  0.00    -0.292 N 
ATOM      3  HN  UNK N   1      39.717  39.259  53.509  1.00  0.00     0.187 HD
HETATM    4  C   UNK N   1      39.512  38.317  51.640  0.00  0.00     0.126 A 
HETATM    5  C   UNK N   1      40.447  37.881  50.716  0.00  0.00     0.019 A 
HETATM    6  C   UNK N   1      41.699  38.183  51.275  0.00  0.00     0.072 A 
HETATM    7  C   UNK N   1      43.027  37.866  50.613  0.00  0.00     0.014 A 
HETATM    8  C   UNK N   1      44.227  38.546  50.920  0.00  0.00     0.015 A 
HETATM    9  C   UNK N   1      45.425  38.202  50.284  0.00  0.00     0.001 A 
HETATM   10  C   UNK N   1      45.452  37.186  49.331  0.00  0.00     0.002 A 
HETATM   11  C   UNK N   1      44.277  36.525  48.985  0.00  0.00     0.024 A 
HETATM   12  C   UNK N   1      43.075  36.867  49.611  0.00  0.00     0.072 A 
HETATM   13  S   UNK N   1      41.560  36.081  49.133  0.00  0.00     0.180 S 
HETATM   14  O   UNK N   1      41.604  35.613  47.670  0.00  0.00    -0.222 OA
HETATM   15  O   UNK N   1      41.382  34.767  49.907  0.00  0.00    -0.222 OA
HETATM   16  C   UNK N   1      40.165  37.171  49.421  0.00  0.00     0.189 C 
ENDROOT
BRANCH   1  17
HETATM   17  C   UNK N   1      42.412  39.191  53.542  0.00  0.00     0.137 C 
HETATM   18  C   UNK N   1      42.610  40.708  53.480  0.00  0.00     0.031 C 
HETATM   19  C   UNK N   1      43.644  41.163  54.533  0.00  0.00     0.032 C 
HETATM   20  C   UNK N   1      43.699  40.218  55.754  0.00  0.00     0.272 C 
HETATM   21  N   UNK N   1      42.381  39.647  56.074  0.00  0.00     0.092 N 
HETATM   22  C   UNK N   1      41.878  38.782  54.963  0.00  0.00     0.299 C 
BRANCH  21  23
HETATM   23  C   UNK N   1      41.396  40.674  56.494  0.00  0.00     0.302 C 
BRANCH  23  24
HETATM   24  C   UNK N   1      39.945  40.214  56.243  0.00  0.00     0.302 C 
BRANCH  24  25
HETATM   25  N   UNK N   1      39.286  39.536  57.380  0.00  0.00     0.095 N 
HETATM   26  C   UNK N   1      38.938  38.126  57.150  0.00  0.00     0.309 C 
HETATM   27  C   UNK N   1      38.064  37.621  58.328  0.00  0.00     0.080 C 
HETATM   28  C   UNK N   1      36.677  38.311  58.324  0.00  0.00     0.047 C 
HETATM   29  C   UNK N   1      37.838  36.110  58.159  0.00  0.00     0.047 C 
HETATM   30  O   UNK N   1      38.738  37.809  59.573  0.00  0.00    -0.377 OA
HETATM   31  C   UNK N   1      39.141  39.153  59.787  0.00  0.00     0.199 C 
HETATM   32  C   UNK N   1      40.021  39.664  58.649  0.00  0.00     0.298 C 
ENDBRANCH  24  25
ENDBRANCH  23  24
ENDBRANCH  21  23
ENDBRANCH   1  17
BRANCH   4  33
HETATM   33  C   UNK N   1      38.024  38.220  51.516  0.00  0.00     0.272 C 
HETATM   34  O   UNK N   1      37.451  39.104  50.893  0.00  0.00    -0.266 OA
HETATM   35  N   UNK N   1      37.282  37.177  52.034  0.00  0.00    -0.343 N 
HETATM   36  C   UNK N   1      35.834  37.173  51.779  0.00  0.00     0.152 C 
HETATM   37  C   UNK N   1      37.942  35.995  52.608  0.00  0.00     0.152 C 
HETATM   38  C   UNK N   1      35.102  35.997  52.421  0.00  0.00     0.187 C 
HETATM   39  O   UNK N   1      35.851  34.811  52.255  0.00  0.00    -0.388 OA
HETATM   40  C   UNK N   1      36.968  34.921  53.111  0.00  0.00     0.187 C 
ENDBRANCH   4  33
TORSDOF 5
ENDMDL
MODEL 9
REMARK VINA RESULT:      -8.2      4.637      8.363
REMARK  5 active torsions:
REMARK  status: ('A' for Active; 'I' for Inactive)
REMARK    1  A    between atoms: N_5  and  C_6 
REMARK    2  A    between atoms: C_6  and  C_7 
REMARK    3  A    between atoms: C_7  and  N_8 
REMARK    4  A    between atoms: C_12  and  N_13 
REMARK    5  A    between atoms: C_16  and  C_17 
REMARK       I    between atoms: C_17  and  N_19 
ROOT
HETATM    1  N   UNK N   1      40.887  39.490  53.530  0.00  0.00    -0.284 N 
HETATM    2  N   UNK N   1      39.774  39.313  52.829  0.00  0.00    -0.292 N 
ATOM      3  HN  UNK N   1      38.830  39.496  53.169  1.00  0.00     0.187 HD
HETATM    4  C   UNK N   1      40.081  38.856  51.605  0.00  0.00     0.126 A 
HETATM    5  C   UNK N   1      41.458  38.749  51.506  0.00  0.00     0.019 A 
HETATM    6  C   UNK N   1      41.958  39.166  52.749  0.00  0.00     0.072 A 
HETATM    7  C   UNK N   1      43.433  39.199  53.106  0.00  0.00     0.014 A 
HETATM    8  C   UNK N   1      43.964  40.017  54.129  0.00  0.00     0.015 A 
HETATM    9  C   UNK N   1      45.332  39.997  54.422  0.00  0.00     0.001 A 
HETATM   10  C   UNK N   1      46.196  39.174  53.702  0.00  0.00     0.002 A 
HETATM   11  C   UNK N   1      45.703  38.385  52.666  0.00  0.00     0.024 A 
HETATM   12  C   UNK N   1      44.338  38.404  52.364  0.00  0.00     0.072 A 
HETATM   13  S   UNK N   1      43.708  37.457  51.004  0.00  0.00     0.180 S 
HETATM   14  O   UNK N   1      44.774  37.253  49.916  0.00  0.00    -0.222 OA
HETATM   15  O   UNK N   1      43.405  36.023  51.460  0.00  0.00    -0.222 OA
HETATM   16  C   UNK N   1      42.235  38.225  50.330  0.00  0.00     0.189 C 
ENDROOT
BRANCH   1  17
HETATM   17  C   UNK N   1      40.817  39.893  54.947  0.00  0.00     0.137 C 
HETATM   18  C   UNK N   1      39.472  40.568  55.231  0.00  0.00     0.031 C 
HETATM   19  C   UNK N   1      39.409  41.056  56.694  0.00  0.00     0.032 C 
HETATM   20  C   UNK N   1      40.301  40.218  57.636  0.00  0.00     0.272 C 
HETATM   21  N   UNK N   1      40.359  38.804  57.233  0.00  0.00     0.092 N 
HETATM   22  C   UNK N   1      40.996  38.647  55.889  0.00  0.00     0.299 C 
BRANCH  21  23
HETATM   23  C   UNK N   1      39.044  38.124  57.328  0.00  0.00     0.302 C 
BRANCH  23  24
HETATM   24  C   UNK N   1      39.052  36.756  56.615  0.00  0.00     0.302 C 
BRANCH  24  25
HETATM   25  N   UNK N   1      37.828  36.429  55.851  0.00  0.00     0.095 N 
HETATM   26  C   UNK N   1      37.512  37.353  54.753  0.00  0.00     0.309 C 
HETATM   27  C   UNK N   1      36.103  37.016  54.197  0.00  0.00     0.080 C 
HETATM   28  C   UNK N   1      35.004  37.346  55.237  0.00  0.00     0.047 C 
HETATM   29  C   UNK N   1      35.847  37.880  52.951  0.00  0.00     0.047 C 
HETATM   30  O   UNK N   1      36.038  35.651  53.782  0.00  0.00    -0.377 OA
HETATM   31  C   UNK N   1      36.404  34.742  54.810  0.00  0.00     0.199 C 
HETATM   32  C   UNK N   1      37.797  35.043  55.357  0.00  0.00     0.298 C 
ENDBRANCH  24  25
ENDBRANCH  23  24
ENDBRANCH  21  23
ENDBRANCH   1  17
BRANCH   4  33
HETATM   33  C   UNK N   1      39.082  38.524  50.541  0.00  0.00     0.272 C 
HETATM   34  O   UNK N   1      38.868  39.370  49.683  0.00  0.00    -0.266 OA
HETATM   35  N   UNK N   1      38.426  37.311  50.463  0.00  0.00    -0.343 N 
HETATM   36  C   UNK N   1      37.521  37.093  49.325  0.00  0.00     0.152 C 
HETATM   37  C   UNK N   1      38.798  36.195  51.345  0.00  0.00     0.152 C 
HETATM   38  C   UNK N   1      36.821  35.736  49.350  0.00  0.00     0.187 C 
HETATM   39  O   UNK N   1      37.733  34.728  49.728  0.00  0.00    -0.388 OA
HETATM   40  C   UNK N   1      37.987  34.914  51.104  0.00  0.00     0.187 C 
ENDBRANCH   4  33
TORSDOF 5
ENDMDL
