MODEL 1
REMARK VINA RESULT:      -8.4      0.000      0.000
REMARK  5 active torsions:
REMARK  status: ('A' for Active; 'I' for Inactive)
REMARK    1  A    between atoms: C_13  and  C_14 
REMARK       I    between atoms: C_14  and  N_16 
REMARK    2  A    between atoms: N_24  and  C_25 
REMARK    3  A    between atoms: N_29  and  C_30 
REMARK    4  A    between atoms: C_30  and  C_31 
REMARK    5  A    between atoms: C_31  and  N_32 
ROOT
HETATM    1  C   UNK N   1      47.270  38.082  51.818  0.00  0.00     0.050 C 
HETATM    2  C   UNK N   1      46.240  38.693  52.729  0.00  0.00    -0.040 A 
HETATM    3  C   UNK N   1      46.658  39.280  53.930  0.00  0.00     0.008 A 
HETATM    4  C   UNK N   1      45.733  39.865  54.788  0.00  0.00     0.002 A 
HETATM    5  C   UNK N   1      44.373  39.840  54.485  0.00  0.00     0.015 A 
HETATM    6  C   UNK N   1      43.905  39.220  53.310  0.00  0.00     0.015 A 
HETATM    7  C   UNK N   1      44.860  38.685  52.406  0.00  0.00     0.078 A 
HETATM    8  S   UNK N   1      44.238  38.022  50.867  0.00  0.00     0.181 S 
HETATM    9  O   UNK N   1      45.224  38.162  49.699  0.00  0.00    -0.222 OA
HETATM   10  O   UNK N   1      44.065  36.500  50.977  0.00  0.00    -0.222 OA
HETATM   11  C   UNK N   1      42.676  38.778  50.413  0.00  0.00     0.189 C 
HETATM   12  C   UNK N   1      41.903  38.964  51.687  0.00  0.00     0.019 A 
HETATM   13  C   UNK N   1      40.525  38.898  51.849  0.00  0.00     0.126 A 
HETATM   14  N   UNK N   1      40.245  39.013  53.156  0.00  0.00    -0.292 N 
ATOM     15  HN  UNK N   1      39.308  39.012  53.559  1.00  0.00     0.187 HD
HETATM   16  N   UNK N   1      41.373  39.129  53.846  0.00  0.00    -0.284 N 
HETATM   17  C   UNK N   1      42.426  39.135  52.977  0.00  0.00     0.072 A 
ENDROOT
BRANCH  16  18
HETATM   18  C   UNK N   1      41.343  39.077  55.320  0.00  0.00     0.137 C 
HETATM   19  C   UNK N   1      41.371  40.480  55.922  0.00  0.00     0.031 C 
HETATM   20  C   UNK N   1      41.411  40.390  57.465  0.00  0.00     0.032 C 
HETATM   21  C   UNK N   1      40.728  39.108  58.008  0.00  0.00     0.272 C 
HETATM   22  N   UNK N   1      39.593  38.679  57.170  0.00  0.00     0.092 N 
HETATM   23  C   UNK N   1      40.038  38.346  55.785  0.00  0.00     0.299 C 
BRANCH  22  24
HETATM   24  C   UNK N   1      38.449  39.625  57.202  0.00  0.00     0.302 C 
BRANCH  24  25
HETATM   25  C   UNK N   1      37.699  39.637  55.868  0.00  0.00     0.302 C 
BRANCH  25  26
HETATM   26  N   UNK N   1      37.791  40.980  55.251  0.00  0.00     0.094 N 
HETATM   27  C   UNK N   1      38.049  42.048  56.259  0.00  0.00     0.298 C 
HETATM   28  C   UNK N   1      36.863  43.029  56.407  0.00  0.00     0.198 C 
HETATM   29  O   UNK N   1      35.646  42.320  56.523  0.00  0.00    -0.388 OA
HETATM   30  C   UNK N   1      35.380  41.517  55.371  0.00  0.00     0.198 C 
HETATM   31  C   UNK N   1      36.598  41.292  54.443  0.00  0.00     0.298 C 
ENDBRANCH  25  26
ENDBRANCH  24  25
ENDBRANCH  22  24
ENDBRANCH  16  18
BRANCH  13  32
HETATM   32  C   UNK N   1      39.503  38.657  50.774  0.00  0.00     0.272 C 
HETATM   33  O   UNK N   1      39.395  39.501  49.895  0.00  0.00    -0.266 OA
HETATM   34  N   UNK N   1      38.720  37.519  50.702  0.00  0.00    -0.343 N 
HETATM   35  C   UNK N   1      38.873  36.426  51.673  0.00  0.00     0.152 C 
HETATM   36  C   UNK N   1      37.884  37.340  49.506  0.00  0.00     0.152 C 
HETATM   37  C   UNK N   1      37.920  35.251  51.436  0.00  0.00     0.187 C 
HETATM   38  O   UNK N   1      37.793  34.988  50.055  0.00  0.00    -0.388 OA
HETATM   39  C   UNK N   1      37.048  36.058  49.511  0.00  0.00     0.187 C 
ENDBRANCH  13  32
TORSDOF 5
ENDMDL
MODEL 2
REMARK VINA RESULT:      -8.2      1.925      2.625
REMARK  5 active torsions:
REMARK  status: ('A' for Active; 'I' for Inactive)
REMARK    1  A    between atoms: C_13  and  C_14 
REMARK       I    between atoms: C_14  and  N_16 
REMARK    2  A    between atoms: N_24  and  C_25 
REMARK    3  A    between atoms: N_29  and  C_30 
REMARK    4  A    between atoms: C_30  and  C_31 
REMARK    5  A    between atoms: C_31  and  N_32 
ROOT
HETATM    1  C   UNK N   1      47.139  38.263  52.178  0.00  0.00     0.050 C 
HETATM    2  C   UNK N   1      46.073  38.868  53.051  0.00  0.00    -0.040 A 
HETATM    3  C   UNK N   1      46.449  39.494  54.247  0.00  0.00     0.008 A 
HETATM    4  C   UNK N   1      45.490  40.074  55.071  0.00  0.00     0.002 A 
HETATM    5  C   UNK N   1      44.138  40.004  54.740  0.00  0.00     0.015 A 
HETATM    6  C   UNK N   1      43.712  39.344  53.570  0.00  0.00     0.015 A 
HETATM    7  C   UNK N   1      44.702  38.815  52.700  0.00  0.00     0.078 A 
HETATM    8  S   UNK N   1      44.131  38.098  51.164  0.00  0.00     0.181 S 
HETATM    9  O   UNK N   1      45.138  38.238  50.015  0.00  0.00    -0.222 OA
HETATM   10  O   UNK N   1      43.996  36.575  51.308  0.00  0.00    -0.222 OA
HETATM   11  C   UNK N   1      42.559  38.800  50.660  0.00  0.00     0.189 C 
HETATM   12  C   UNK N   1      41.754  38.995  51.912  0.00  0.00     0.019 A 
HETATM   13  C   UNK N   1      40.375  38.896  52.047  0.00  0.00     0.126 A 
HETATM   14  N   UNK N   1      40.064  39.034  53.345  0.00  0.00    -0.292 N 
ATOM     15  HN  UNK N   1      39.119  39.016  53.727  1.00  0.00     0.187 HD
HETATM   16  N   UNK N   1      41.173  39.196  54.055  0.00  0.00    -0.284 N 
HETATM   17  C   UNK N   1      42.245  39.211  53.208  0.00  0.00     0.072 A 
ENDROOT
BRANCH  16  18
HETATM   18  C   UNK N   1      41.113  39.179  55.529  0.00  0.00     0.137 C 
HETATM   19  C   UNK N   1      40.535  40.482  56.073  0.00  0.00     0.031 C 
HETATM   20  C   UNK N   1      40.551  40.462  57.619  0.00  0.00     0.032 C 
HETATM   21  C   UNK N   1      40.441  39.028  58.199  0.00  0.00     0.272 C 
HETATM   22  N   UNK N   1      39.617  38.142  57.354  0.00  0.00     0.092 N 
HETATM   23  C   UNK N   1      40.211  37.986  55.994  0.00  0.00     0.299 C 
BRANCH  22  24
HETATM   24  C   UNK N   1      38.184  38.529  57.322  0.00  0.00     0.302 C 
BRANCH  24  25
HETATM   25  C   UNK N   1      37.534  38.149  55.990  0.00  0.00     0.302 C 
BRANCH  25  26
HETATM   26  N   UNK N   1      36.526  37.085  56.207  0.00  0.00     0.094 N 
HETATM   27  C   UNK N   1      36.544  36.569  57.607  0.00  0.00     0.298 C 
HETATM   28  C   UNK N   1      37.009  35.097  57.695  0.00  0.00     0.198 C 
HETATM   29  O   UNK N   1      38.177  34.900  56.926  0.00  0.00    -0.388 OA
HETATM   30  C   UNK N   1      37.965  35.186  55.541  0.00  0.00     0.198 C 
HETATM   31  C   UNK N   1      36.675  35.986  55.236  0.00  0.00     0.298 C 
ENDBRANCH  25  26
ENDBRANCH  24  25
ENDBRANCH  22  24
ENDBRANCH  16  18
BRANCH  13  32
HETATM   32  C   UNK N   1      39.384  38.601  50.957  0.00  0.00     0.272 C 
HETATM   33  O   UNK N   1      39.306  39.397  50.031  0.00  0.00    -0.266 OA
HETATM   34  N   UNK N   1      38.597  37.464  50.922  0.00  0.00    -0.343 N 
HETATM   35  C   UNK N   1      38.714  36.425  51.955  0.00  0.00     0.152 C 
HETATM   36  C   UNK N   1      37.795  37.224  49.713  0.00  0.00     0.152 C 
HETATM   37  C   UNK N   1      37.762  35.243  51.753  0.00  0.00     0.187 C 
HETATM   38  O   UNK N   1      37.674  34.906  50.385  0.00  0.00    -0.388 OA
HETATM   39  C   UNK N   1      36.952  35.948  49.763  0.00  0.00     0.187 C 
ENDBRANCH  13  32
TORSDOF 5
ENDMDL
MODEL 3
REMARK VINA RESULT:      -8.0      2.665      3.832
REMARK  5 active torsions:
REMARK  status: ('A' for Active; 'I' for Inactive)
REMARK    1  A    between atoms: C_13  and  C_14 
REMARK       I    between atoms: C_14  and  N_16 
REMARK    2  A    between atoms: N_24  and  C_25 
REMARK    3  A    between atoms: N_29  and  C_30 
REMARK    4  A    between atoms: C_30  and  C_31 
REMARK    5  A    between atoms: C_31  and  N_32 
ROOT
HETATM    1  C   UNK N   1      43.614  35.147  48.054  0.00  0.00     0.050 C 
HETATM    2  C   UNK N   1      43.610  36.330  48.984  0.00  0.00    -0.040 A 
HETATM    3  C   UNK N   1      44.813  37.008  49.224  0.00  0.00     0.008 A 
HETATM    4  C   UNK N   1      44.842  38.113  50.068  0.00  0.00     0.002 A 
HETATM    5  C   UNK N   1      43.684  38.537  50.719  0.00  0.00     0.015 A 
HETATM    6  C   UNK N   1      42.463  37.856  50.541  0.00  0.00     0.015 A 
HETATM    7  C   UNK N   1      42.427  36.772  49.626  0.00  0.00     0.078 A 
HETATM    8  S   UNK N   1      40.835  36.014  49.329  0.00  0.00     0.181 S 
HETATM    9  O   UNK N   1      40.685  35.441  47.913  0.00  0.00    -0.222 OA
HETATM   10  O   UNK N   1      40.667  34.769  50.213  0.00  0.00    -0.222 OA
HETATM   11  C   UNK N   1      39.495  37.165  49.645  0.00  0.00     0.189 C 
HETATM   12  C   UNK N   1      39.895  37.971  50.846  0.00  0.00     0.019 A 
HETATM   13  C   UNK N   1      39.056  38.491  51.824  0.00  0.00     0.126 A 
HETATM   14  N   UNK N   1      39.814  39.052  52.779  0.00  0.00    -0.292 N 
ATOM     15  HN  UNK N   1      39.458  39.523  53.611  1.00  0.00     0.187 HD
HETATM   16  N   UNK N   1      41.097  38.902  52.476  0.00  0.00    -0.284 N 
HETATM   17  C   UNK N   1      41.198  38.265  51.272  0.00  0.00     0.072 A 
ENDROOT
BRANCH  16  18
HETATM   18  C   UNK N   1      42.133  39.264  53.461  0.00  0.00     0.137 C 
HETATM   19  C   UNK N   1      42.401  40.767  53.454  0.00  0.00     0.031 C 
HETATM   20  C   UNK N   1      43.539  41.105  54.445  0.00  0.00     0.032 C 
HETATM   21  C   UNK N   1      43.620  40.105  55.627  0.00  0.00     0.272 C 
HETATM   22  N   UNK N   1      42.295  39.585  56.014  0.00  0.00     0.092 N 
HETATM   23  C   UNK N   1      41.658  38.836  54.892  0.00  0.00     0.299 C 
BRANCH  22  24
HETATM   24  C   UNK N   1      41.407  40.621  56.600  0.00  0.00     0.302 C 
BRANCH  24  25
HETATM   25  C   UNK N   1      39.937  40.340  56.279  0.00  0.00     0.302 C 
BRANCH  25  26
HETATM   26  N   UNK N   1      39.220  39.941  57.512  0.00  0.00     0.094 N 
HETATM   27  C   UNK N   1      40.148  39.437  58.566  0.00  0.00     0.298 C 
HETATM   28  C   UNK N   1      39.948  37.934  58.868  0.00  0.00     0.198 C 
HETATM   29  O   UNK N   1      39.879  37.192  57.668  0.00  0.00    -0.388 OA
HETATM   30  C   UNK N   1      38.783  37.600  56.845  0.00  0.00     0.198 C 
HETATM   31  C   UNK N   1      38.156  38.962  57.231  0.00  0.00     0.298 C 
ENDBRANCH  25  26
ENDBRANCH  24  25
ENDBRANCH  22  24
ENDBRANCH  16  18
BRANCH  13  32
HETATM   32  C   UNK N   1      37.558  38.386  51.874  0.00  0.00     0.272 C 
HETATM   33  O   UNK N   1      36.909  39.262  51.318  0.00  0.00    -0.266 OA
HETATM   34  N   UNK N   1      36.882  37.335  52.468  0.00  0.00    -0.343 N 
HETATM   35  C   UNK N   1      37.607  36.205  53.067  0.00  0.00     0.152 C 
HETATM   36  C   UNK N   1      35.423  37.277  52.296  0.00  0.00     0.152 C 
HETATM   37  C   UNK N   1      36.692  35.139  53.679  0.00  0.00     0.187 C 
HETATM   38  O   UNK N   1      35.560  34.931  52.862  0.00  0.00    -0.388 OA
HETATM   39  C   UNK N   1      34.757  36.086  52.989  0.00  0.00     0.187 C 
ENDBRANCH  13  32
TORSDOF 5
ENDMDL
MODEL 4
REMARK VINA RESULT:      -7.3      2.927      7.438
REMARK  5 active torsions:
REMARK  status: ('A' for Active; 'I' for Inactive)
REMARK    1  A    between atoms: C_13  and  C_14 
REMARK       I    between atoms: C_14  and  N_16 
REMARK    2  A    between atoms: N_24  and  C_25 
REMARK    3  A    between atoms: N_29  and  C_30 
REMARK    4  A    between atoms: C_30  and  C_31 
REMARK    5  A    between atoms: C_31  and  N_32 
ROOT
HETATM    1  C   UNK N   1      35.539  43.341  57.502  0.00  0.00     0.050 C 
HETATM    2  C   UNK N   1      36.914  42.739  57.398  0.00  0.00    -0.040 A 
HETATM    3  C   UNK N   1      37.985  43.377  58.039  0.00  0.00     0.008 A 
HETATM    4  C   UNK N   1      39.266  42.840  57.974  0.00  0.00     0.002 A 
HETATM    5  C   UNK N   1      39.511  41.683  57.236  0.00  0.00     0.015 A 
HETATM    6  C   UNK N   1      38.472  41.036  56.538  0.00  0.00     0.015 A 
HETATM    7  C   UNK N   1      37.155  41.551  56.666  0.00  0.00     0.078 A 
HETATM    8  S   UNK N   1      35.844  40.630  55.872  0.00  0.00     0.181 S 
HETATM    9  O   UNK N   1      34.497  40.738  56.598  0.00  0.00    -0.222 OA
HETATM   10  O   UNK N   1      35.531  41.234  54.495  0.00  0.00    -0.222 OA
HETATM   11  C   UNK N   1      36.280  38.899  55.689  0.00  0.00     0.189 C 
HETATM   12  C   UNK N   1      37.740  38.858  55.344  0.00  0.00     0.019 A 
HETATM   13  C   UNK N   1      38.385  37.933  54.533  0.00  0.00     0.126 A 
HETATM   14  N   UNK N   1      39.665  38.309  54.393  0.00  0.00    -0.292 N 
ATOM     15  HN  UNK N   1      40.371  37.803  53.859  1.00  0.00     0.187 HD
HETATM   16  N   UNK N   1      39.872  39.440  55.057  0.00  0.00    -0.284 N 
HETATM   17  C   UNK N   1      38.718  39.803  55.688  0.00  0.00     0.072 A 
ENDROOT
BRANCH  16  18
HETATM   18  C   UNK N   1      41.151  40.159  54.902  0.00  0.00     0.137 C 
HETATM   19  C   UNK N   1      42.260  39.493  55.713  0.00  0.00     0.031 C 
HETATM   20  C   UNK N   1      43.568  40.310  55.587  0.00  0.00     0.032 C 
HETATM   21  C   UNK N   1      43.666  41.079  54.244  0.00  0.00     0.272 C 
HETATM   22  N   UNK N   1      43.017  40.355  53.135  0.00  0.00     0.092 N 
HETATM   23  C   UNK N   1      41.559  40.170  53.390  0.00  0.00     0.299 C 
BRANCH  22  24
HETATM   24  C   UNK N   1      43.709  39.092  52.773  0.00  0.00     0.302 C 
BRANCH  24  25
HETATM   25  C   UNK N   1      43.614  38.816  51.271  0.00  0.00     0.302 C 
BRANCH  25  26
HETATM   26  N   UNK N   1      42.886  37.547  51.038  0.00  0.00     0.094 N 
HETATM   27  C   UNK N   1      43.582  36.671  50.052  0.00  0.00     0.298 C 
HETATM   28  C   UNK N   1      42.782  36.492  48.742  0.00  0.00     0.198 C 
HETATM   29  O   UNK N   1      42.317  37.740  48.271  0.00  0.00    -0.388 OA
HETATM   30  C   UNK N   1      41.444  38.377  49.208  0.00  0.00     0.198 C 
HETATM   31  C   UNK N   1      41.488  37.787  50.638  0.00  0.00     0.298 C 
ENDBRANCH  25  26
ENDBRANCH  24  25
ENDBRANCH  22  24
ENDBRANCH  16  18
BRANCH  13  32
HETATM   32  C   UNK N   1      37.762  36.750  53.846  0.00  0.00     0.272 C 
HETATM   33  O   UNK N   1      37.318  36.918  52.718  0.00  0.00    -0.266 OA
HETATM   34  N   UNK N   1      37.708  35.483  54.398  0.00  0.00    -0.343 N 
HETATM   35  C   UNK N   1      38.311  35.197  55.708  0.00  0.00     0.152 C 
HETATM   36  C   UNK N   1      37.223  34.387  53.547  0.00  0.00     0.152 C 
HETATM   37  C   UNK N   1      38.151  33.741  56.157  0.00  0.00     0.187 C 
HETATM   38  O   UNK N   1      38.326  32.864  55.065  0.00  0.00    -0.388 OA
HETATM   39  C   UNK N   1      37.192  33.022  54.239  0.00  0.00     0.187 C 
ENDBRANCH  13  32
TORSDOF 5
ENDMDL
MODEL 5
REMARK VINA RESULT:      -7.2      9.418     12.717
REMARK  5 active torsions:
REMARK  status: ('A' for Active; 'I' for Inactive)
REMARK    1  A    between atoms: C_13  and  C_14 
REMARK       I    between atoms: C_14  and  N_16 
REMARK    2  A    between atoms: N_24  and  C_25 
REMARK    3  A    between atoms: N_29  and  C_30 
REMARK    4  A    between atoms: C_30  and  C_31 
REMARK    5  A    between atoms: C_31  and  N_32 
ROOT
HETATM    1  C   UNK N   1      44.734  32.214  47.345  0.00  0.00     0.050 C 
HETATM    2  C   UNK N   1      43.364  32.830  47.270  0.00  0.00    -0.040 A 
HETATM    3  C   UNK N   1      42.778  33.330  48.441  0.00  0.00     0.008 A 
HETATM    4  C   UNK N   1      41.519  33.918  48.403  0.00  0.00     0.002 A 
HETATM    5  C   UNK N   1      40.802  33.980  47.209  0.00  0.00     0.015 A 
HETATM    6  C   UNK N   1      41.334  33.448  46.018  0.00  0.00     0.015 A 
HETATM    7  C   UNK N   1      42.648  32.912  46.050  0.00  0.00     0.078 A 
HETATM    8  S   UNK N   1      43.338  32.364  44.494  0.00  0.00     0.181 S 
HETATM    9  O   UNK N   1      44.864  32.513  44.417  0.00  0.00    -0.222 OA
HETATM   10  O   UNK N   1      43.142  30.849  44.331  0.00  0.00    -0.222 OA
HETATM   11  C   UNK N   1      42.591  33.224  43.108  0.00  0.00     0.189 C 
HETATM   12  C   UNK N   1      41.134  33.383  43.437  0.00  0.00     0.019 A 
HETATM   13  C   UNK N   1      40.069  33.382  42.546  0.00  0.00     0.126 A 
HETATM   14  N   UNK N   1      38.928  33.443  43.249  0.00  0.00    -0.292 N 
ATOM     15  HN  UNK N   1      37.991  33.470  42.847  1.00  0.00     0.187 HD
HETATM   16  N   UNK N   1      39.203  33.462  44.547  0.00  0.00    -0.284 N 
HETATM   17  C   UNK N   1      40.559  33.459  44.713  0.00  0.00     0.072 A 
ENDROOT
BRANCH  16  18
HETATM   18  C   UNK N   1      38.113  33.335  45.533  0.00  0.00     0.137 C 
HETATM   19  C   UNK N   1      36.802  33.887  44.980  0.00  0.00     0.031 C 
HETATM   20  C   UNK N   1      35.698  33.805  46.060  0.00  0.00     0.032 C 
HETATM   21  C   UNK N   1      35.923  32.640  47.058  0.00  0.00     0.272 C 
HETATM   22  N   UNK N   1      36.568  31.474  46.424  0.00  0.00     0.092 N 
HETATM   23  C   UNK N   1      37.919  31.824  45.896  0.00  0.00     0.299 C 
BRANCH  22  24
HETATM   24  C   UNK N   1      35.707  30.803  45.418  0.00  0.00     0.302 C 
BRANCH  24  25
HETATM   25  C   UNK N   1      35.857  29.281  45.483  0.00  0.00     0.302 C 
BRANCH  25  26
HETATM   26  N   UNK N   1      35.681  28.700  44.133  0.00  0.00     0.094 N 
HETATM   27  C   UNK N   1      35.840  27.216  44.132  0.00  0.00     0.298 C 
HETATM   28  C   UNK N   1      37.086  26.750  43.345  0.00  0.00     0.198 C 
HETATM   29  O   UNK N   1      38.217  27.514  43.708  0.00  0.00    -0.388 OA
HETATM   30  C   UNK N   1      38.041  28.904  43.422  0.00  0.00     0.198 C 
HETATM   31  C   UNK N   1      36.578  29.328  43.147  0.00  0.00     0.298 C 
ENDBRANCH  25  26
ENDBRANCH  24  25
ENDBRANCH  22  24
ENDBRANCH  16  18
BRANCH  13  32
HETATM   32  C   UNK N   1      40.146  33.252  41.051  0.00  0.00     0.272 C 
HETATM   33  O   UNK N   1      40.170  34.283  40.392  0.00  0.00    -0.266 OA
HETATM   34  N   UNK N   1      40.238  32.040  40.390  0.00  0.00    -0.343 N 
HETATM   35  C   UNK N   1      40.311  30.773  41.131  0.00  0.00     0.152 C 
HETATM   36  C   UNK N   1      40.476  32.069  38.939  0.00  0.00     0.152 C 
HETATM   37  C   UNK N   1      40.407  29.536  40.232  0.00  0.00     0.187 C 
HETATM   38  O   UNK N   1      41.253  29.789  39.131  0.00  0.00    -0.388 OA
HETATM   39  C   UNK N   1      40.559  30.686  38.290  0.00  0.00     0.187 C 
ENDBRANCH  13  32
TORSDOF 5
ENDMDL
MODEL 6
REMARK VINA RESULT:      -7.1      2.926      5.057
REMARK  5 active torsions:
REMARK  status: ('A' for Active; 'I' for Inactive)
REMARK    1  A    between atoms: C_13  and  C_14 
REMARK       I    between atoms: C_14  and  N_16 
REMARK    2  A    between atoms: N_24  and  C_25 
REMARK    3  A    between atoms: N_29  and  C_30 
REMARK    4  A    between atoms: C_30  and  C_31 
REMARK    5  A    between atoms: C_31  and  N_32 
ROOT
HETATM    1  C   UNK N   1      40.673  34.896  48.423  0.00  0.00     0.050 C 
HETATM    2  C   UNK N   1      41.201  36.071  49.201  0.00  0.00    -0.040 A 
HETATM    3  C   UNK N   1      42.524  36.483  48.994  0.00  0.00     0.008 A 
HETATM    4  C   UNK N   1      43.040  37.573  49.687  0.00  0.00     0.002 A 
HETATM    5  C   UNK N   1      42.262  38.244  50.628  0.00  0.00     0.015 A 
HETATM    6  C   UNK N   1      40.942  37.834  50.901  0.00  0.00     0.015 A 
HETATM    7  C   UNK N   1      40.400  36.765  50.141  0.00  0.00     0.078 A 
HETATM    8  S   UNK N   1      38.683  36.356  50.425  0.00  0.00     0.181 S 
HETATM    9  O   UNK N   1      37.974  35.802  49.182  0.00  0.00    -0.222 OA
HETATM   10  O   UNK N   1      38.572  35.192  51.421  0.00  0.00    -0.222 OA
HETATM   11  C   UNK N   1      37.768  37.770  51.044  0.00  0.00     0.189 C 
HETATM   12  C   UNK N   1      38.685  38.496  51.986  0.00  0.00     0.019 A 
HETATM   13  C   UNK N   1      38.328  39.200  53.128  0.00  0.00     0.126 A 
HETATM   14  N   UNK N   1      39.448  39.606  53.745  0.00  0.00    -0.292 N 
ATOM     15  HN  UNK N   1      39.479  40.157  54.603  1.00  0.00     0.187 HD
HETATM   16  N   UNK N   1      40.508  39.182  53.069  0.00  0.00    -0.284 N 
HETATM   17  C   UNK N   1      40.087  38.515  51.954  0.00  0.00     0.072 A 
ENDROOT
BRANCH  16  18
HETATM   18  C   UNK N   1      41.857  39.335  53.646  0.00  0.00     0.137 C 
HETATM   19  C   UNK N   1      42.398  40.745  53.419  0.00  0.00     0.031 C 
HETATM   20  C   UNK N   1      43.839  40.852  53.970  0.00  0.00     0.032 C 
HETATM   21  C   UNK N   1      44.100  39.885  55.154  0.00  0.00     0.272 C 
HETATM   22  N   UNK N   1      42.897  39.672  55.980  0.00  0.00     0.092 N 
HETATM   23  C   UNK N   1      41.797  39.052  55.185  0.00  0.00     0.299 C 
BRANCH  22  24
HETATM   24  C   UNK N   1      42.468  40.888  56.717  0.00  0.00     0.302 C 
BRANCH  24  25
HETATM   25  C   UNK N   1      42.196  40.579  58.191  0.00  0.00     0.302 C 
BRANCH  25  26
HETATM   26  N   UNK N   1      40.818  40.988  58.545  0.00  0.00     0.094 N 
HETATM   27  C   UNK N   1      40.677  41.300  59.997  0.00  0.00     0.298 C 
HETATM   28  C   UNK N   1      39.761  40.299  60.737  0.00  0.00     0.198 C 
HETATM   29  O   UNK N   1      40.103  38.971  60.398  0.00  0.00    -0.388 OA
HETATM   30  C   UNK N   1      39.951  38.716  58.999  0.00  0.00     0.198 C 
HETATM   31  C   UNK N   1      39.825  39.985  58.120  0.00  0.00     0.298 C 
ENDBRANCH  25  26
ENDBRANCH  24  25
ENDBRANCH  22  24
ENDBRANCH  16  18
BRANCH  13  32
HETATM   32  C   UNK N   1      36.936  39.416  53.654  0.00  0.00     0.272 C 
HETATM   33  O   UNK N   1      36.323  40.395  53.251  0.00  0.00    -0.266 OA
HETATM   34  N   UNK N   1      36.302  38.547  54.523  0.00  0.00    -0.343 N 
HETATM   35  C   UNK N   1      36.950  37.305  54.966  0.00  0.00     0.152 C 
HETATM   36  C   UNK N   1      34.883  38.794  54.823  0.00  0.00     0.152 C 
HETATM   37  C   UNK N   1      36.097  36.472  55.929  0.00  0.00     0.187 C 
HETATM   38  O   UNK N   1      34.743  36.488  55.531  0.00  0.00    -0.388 OA
HETATM   39  C   UNK N   1      34.264  37.790  55.796  0.00  0.00     0.187 C 
ENDBRANCH  13  32
TORSDOF 5
ENDMDL
MODEL 7
REMARK VINA RESULT:      -7.0      2.868      5.989
REMARK  5 active torsions:
REMARK  status: ('A' for Active; 'I' for Inactive)
REMARK    1  A    between atoms: C_13  and  C_14 
REMARK       I    between atoms: C_14  and  N_16 
REMARK    2  A    between atoms: N_24  and  C_25 
REMARK    3  A    between atoms: N_29  and  C_30 
REMARK    4  A    between atoms: C_30  and  C_31 
REMARK    5  A    between atoms: C_31  and  N_32 
ROOT
HETATM    1  C   UNK N   1      43.108  40.860  57.777  0.00  0.00     0.050 C 
HETATM    2  C   UNK N   1      41.715  40.452  57.381  0.00  0.00    -0.040 A 
HETATM    3  C   UNK N   1      40.714  40.413  58.361  0.00  0.00     0.008 A 
HETATM    4  C   UNK N   1      39.414  40.052  58.026  0.00  0.00     0.002 A 
HETATM    5  C   UNK N   1      39.096  39.684  56.720  0.00  0.00     0.015 A 
HETATM    6  C   UNK N   1      40.081  39.666  55.713  0.00  0.00     0.015 A 
HETATM    7  C   UNK N   1      41.391  40.101  56.047  0.00  0.00     0.078 A 
HETATM    8  S   UNK N   1      42.581  40.186  54.716  0.00  0.00     0.181 S 
HETATM    9  O   UNK N   1      43.635  41.284  54.909  0.00  0.00    -0.222 OA
HETATM   10  O   UNK N   1      43.433  38.908  54.684  0.00  0.00    -0.222 OA
HETATM   11  C   UNK N   1      41.773  40.415  53.130  0.00  0.00     0.189 C 
HETATM   12  C   UNK N   1      40.521  39.587  53.163  0.00  0.00     0.019 A 
HETATM   13  C   UNK N   1      39.920  38.934  52.094  0.00  0.00     0.126 A 
HETATM   14  N   UNK N   1      38.886  38.219  52.561  0.00  0.00    -0.292 N 
ATOM     15  HN  UNK N   1      38.258  37.652  51.991  1.00  0.00     0.187 HD
HETATM   16  N   UNK N   1      38.803  38.362  53.878  0.00  0.00    -0.284 N 
HETATM   17  C   UNK N   1      39.776  39.224  54.294  0.00  0.00     0.072 A 
ENDROOT
BRANCH  16  18
HETATM   18  C   UNK N   1      37.865  37.525  54.651  0.00  0.00     0.137 C 
HETATM   19  C   UNK N   1      36.416  37.890  54.343  0.00  0.00     0.031 C 
HETATM   20  C   UNK N   1      35.461  37.047  55.220  0.00  0.00     0.032 C 
HETATM   21  C   UNK N   1      36.060  35.669  55.601  0.00  0.00     0.272 C 
HETATM   22  N   UNK N   1      36.933  35.124  54.544  0.00  0.00     0.092 N 
HETATM   23  C   UNK N   1      38.100  36.018  54.292  0.00  0.00     0.299 C 
BRANCH  22  24
HETATM   24  C   UNK N   1      36.198  34.764  53.305  0.00  0.00     0.302 C 
BRANCH  24  25
HETATM   25  C   UNK N   1      37.127  34.753  52.089  0.00  0.00     0.302 C 
BRANCH  25  26
HETATM   26  N   UNK N   1      36.376  35.156  50.878  0.00  0.00     0.094 N 
HETATM   27  C   UNK N   1      36.272  34.048  49.884  0.00  0.00     0.298 C 
HETATM   28  C   UNK N   1      37.048  34.342  48.580  0.00  0.00     0.198 C 
HETATM   29  O   UNK N   1      38.345  34.819  48.872  0.00  0.00    -0.388 OA
HETATM   30  C   UNK N   1      38.314  36.038  49.619  0.00  0.00     0.198 C 
HETATM   31  C   UNK N   1      36.945  36.368  50.262  0.00  0.00     0.298 C 
ENDBRANCH  25  26
ENDBRANCH  24  25
ENDBRANCH  22  24
ENDBRANCH  16  18
BRANCH  13  32
HETATM   32  C   UNK N   1      40.377  38.941  50.663  0.00  0.00     0.272 C 
HETATM   33  O   UNK N   1      39.782  39.670  49.881  0.00  0.00    -0.266 OA
HETATM   34  N   UNK N   1      41.456  38.210  50.198  0.00  0.00    -0.343 N 
HETATM   35  C   UNK N   1      42.269  37.391  51.108  0.00  0.00     0.152 C 
HETATM   36  C   UNK N   1      41.893  38.442  48.813  0.00  0.00     0.152 C 
HETATM   37  C   UNK N   1      43.417  36.652  50.414  0.00  0.00     0.187 C 
HETATM   38  O   UNK N   1      44.018  37.476  49.438  0.00  0.00    -0.388 OA
HETATM   39  C   UNK N   1      43.087  37.589  48.382  0.00  0.00     0.187 C 
ENDBRANCH  13  32
TORSDOF 5
ENDMDL
MODEL 8
REMARK VINA RESULT:      -6.9      2.693      6.666
REMARK  5 active torsions:
REMARK  status: ('A' for Active; 'I' for Inactive)
REMARK    1  A    between atoms: C_13  and  C_14 
REMARK       I    between atoms: C_14  and  N_16 
REMARK    2  A    between atoms: N_24  and  C_25 
REMARK    3  A    between atoms: N_29  and  C_30 
REMARK    4  A    between atoms: C_30  and  C_31 
REMARK    5  A    between atoms: C_31  and  N_32 
ROOT
HETATM    1  C   UNK N   1      35.542  32.300  50.321  0.00  0.00     0.050 C 
HETATM    2  C   UNK N   1      36.113  33.154  51.421  0.00  0.00    -0.040 A 
HETATM    3  C   UNK N   1      35.721  32.909  52.744  0.00  0.00     0.008 A 
HETATM    4  C   UNK N   1      36.239  33.672  53.785  0.00  0.00     0.002 A 
HETATM    5  C   UNK N   1      37.123  34.717  53.524  0.00  0.00     0.015 A 
HETATM    6  C   UNK N   1      37.508  35.027  52.204  0.00  0.00     0.015 A 
HETATM    7  C   UNK N   1      37.029  34.201  51.154  0.00  0.00     0.078 A 
HETATM    8  S   UNK N   1      37.640  34.545  49.509  0.00  0.00     0.181 S 
HETATM    9  O   UNK N   1      37.730  33.298  48.618  0.00  0.00    -0.222 OA
HETATM   10  O   UNK N   1      36.642  35.429  48.746  0.00  0.00    -0.222 OA
HETATM   11  C   UNK N   1      39.243  35.349  49.562  0.00  0.00     0.189 C 
HETATM   12  C   UNK N   1      39.208  36.300  50.723  0.00  0.00     0.019 A 
HETATM   13  C   UNK N   1      39.858  37.523  50.824  0.00  0.00     0.126 A 
HETATM   14  N   UNK N   1      39.483  38.110  51.971  0.00  0.00    -0.292 N 
ATOM     15  HN  UNK N   1      39.818  39.013  52.306  1.00  0.00     0.187 HD
HETATM   16  N   UNK N   1      38.611  37.335  52.604  0.00  0.00    -0.284 N 
HETATM   17  C   UNK N   1      38.431  36.188  51.885  0.00  0.00     0.072 A 
ENDROOT
BRANCH  16  18
HETATM   18  C   UNK N   1      37.904  37.844  53.795  0.00  0.00     0.137 C 
HETATM   19  C   UNK N   1      38.549  37.330  55.080  0.00  0.00     0.031 C 
HETATM   20  C   UNK N   1      37.745  37.821  56.306  0.00  0.00     0.032 C 
HETATM   21  C   UNK N   1      37.022  39.168  56.047  0.00  0.00     0.272 C 
HETATM   22  N   UNK N   1      37.779  40.044  55.132  0.00  0.00     0.092 N 
HETATM   23  C   UNK N   1      37.947  39.410  53.792  0.00  0.00     0.299 C 
BRANCH  22  24
HETATM   24  C   UNK N   1      39.057  40.531  55.710  0.00  0.00     0.302 C 
BRANCH  24  25
HETATM   25  C   UNK N   1      40.182  40.505  54.673  0.00  0.00     0.302 C 
BRANCH  25  26
HETATM   26  N   UNK N   1      41.254  39.585  55.117  0.00  0.00     0.094 N 
HETATM   27  C   UNK N   1      42.007  40.119  56.288  0.00  0.00     0.298 C 
HETATM   28  C   UNK N   1      43.477  40.457  55.950  0.00  0.00     0.198 C 
HETATM   29  O   UNK N   1      43.552  41.198  54.749  0.00  0.00    -0.388 OA
HETATM   30  C   UNK N   1      43.025  40.472  53.635  0.00  0.00     0.198 C 
HETATM   31  C   UNK N   1      42.168  39.239  54.013  0.00  0.00     0.298 C 
ENDBRANCH  25  26
ENDBRANCH  24  25
ENDBRANCH  22  24
ENDBRANCH  16  18
BRANCH  13  32
HETATM   32  C   UNK N   1      40.765  38.148  49.802  0.00  0.00     0.272 C 
HETATM   33  O   UNK N   1      40.252  38.859  48.948  0.00  0.00    -0.266 OA
HETATM   34  N   UNK N   1      42.140  38.002  49.805  0.00  0.00    -0.343 N 
HETATM   35  C   UNK N   1      42.823  37.240  50.860  0.00  0.00     0.152 C 
HETATM   36  C   UNK N   1      42.915  38.804  48.847  0.00  0.00     0.152 C 
HETATM   37  C   UNK N   1      44.345  37.184  50.697  0.00  0.00     0.187 C 
HETATM   38  O   UNK N   1      44.841  38.430  50.258  0.00  0.00    -0.388 OA
HETATM   39  C   UNK N   1      44.427  38.576  48.916  0.00  0.00     0.187 C 
ENDBRANCH  13  32
TORSDOF 5
ENDMDL
MODEL 9
REMARK VINA RESULT:      -6.9      5.065      9.543
REMARK  5 active torsions:
REMARK  status: ('A' for Active; 'I' for Inactive)
REMARK    1  A    between atoms: C_13  and  C_14 
REMARK       I    between atoms: C_14  and  N_16 
REMARK    2  A    between atoms: N_24  and  C_25 
REMARK    3  A    between atoms: N_29  and  C_30 
REMARK    4  A    between atoms: C_30  and  C_31 
REMARK    5  A    between atoms: C_31  and  N_32 
ROOT
HETATM    1  C   UNK N   1      36.794  33.283  41.963  0.00  0.00     0.050 C 
HETATM    2  C   UNK N   1      36.730  33.018  43.443  0.00  0.00    -0.040 A 
HETATM    3  C   UNK N   1      35.581  32.419  43.977  0.00  0.00     0.008 A 
HETATM    4  C   UNK N   1      35.494  32.149  45.338  0.00  0.00     0.002 A 
HETATM    5  C   UNK N   1      36.531  32.507  46.198  0.00  0.00     0.015 A 
HETATM    6  C   UNK N   1      37.685  33.152  45.710  0.00  0.00     0.015 A 
HETATM    7  C   UNK N   1      37.796  33.363  44.310  0.00  0.00     0.078 A 
HETATM    8  S   UNK N   1      39.328  34.067  43.715  0.00  0.00     0.181 S 
HETATM    9  O   UNK N   1      39.704  33.603  42.301  0.00  0.00    -0.222 OA
HETATM   10  O   UNK N   1      39.181  35.586  43.540  0.00  0.00    -0.222 OA
HETATM   11  C   UNK N   1      40.687  33.715  44.832  0.00  0.00     0.189 C 
HETATM   12  C   UNK N   1      40.134  33.816  46.225  0.00  0.00     0.019 A 
HETATM   13  C   UNK N   1      40.804  34.247  47.363  0.00  0.00     0.126 A 
HETATM   14  N   UNK N   1      39.929  34.291  48.379  0.00  0.00    -0.292 N 
ATOM     15  HN  UNK N   1      40.154  34.561  49.337  1.00  0.00     0.187 HD
HETATM   16  N   UNK N   1      38.727  33.930  47.949  0.00  0.00    -0.284 N 
HETATM   17  C   UNK N   1      38.809  33.597  46.628  0.00  0.00     0.072 A 
ENDROOT
BRANCH  16  18
HETATM   18  C   UNK N   1      37.554  34.081  48.831  0.00  0.00     0.137 C 
HETATM   19  C   UNK N   1      37.757  33.341  50.151  0.00  0.00     0.031 C 
HETATM   20  C   UNK N   1      36.485  33.457  51.023  0.00  0.00     0.032 C 
HETATM   21  C   UNK N   1      35.687  34.757  50.745  0.00  0.00     0.272 C 
HETATM   22  N   UNK N   1      36.564  35.887  50.381  0.00  0.00     0.092 N 
HETATM   23  C   UNK N   1      37.322  35.601  49.128  0.00  0.00     0.299 C 
BRANCH  22  24
HETATM   24  C   UNK N   1      37.433  36.338  51.497  0.00  0.00     0.302 C 
BRANCH  24  25
HETATM   25  C   UNK N   1      38.839  36.685  51.002  0.00  0.00     0.302 C 
BRANCH  25  26
HETATM   26  N   UNK N   1      39.016  38.155  50.979  0.00  0.00     0.094 N 
HETATM   27  C   UNK N   1      39.128  38.688  49.591  0.00  0.00     0.298 C 
HETATM   28  C   UNK N   1      40.525  39.273  49.286  0.00  0.00     0.198 C 
HETATM   29  O   UNK N   1      41.538  38.386  49.713  0.00  0.00    -0.388 OA
HETATM   30  C   UNK N   1      41.486  38.148  51.122  0.00  0.00     0.198 C 
HETATM   31  C   UNK N   1      40.163  38.579  51.802  0.00  0.00     0.298 C 
ENDBRANCH  25  26
ENDBRANCH  24  25
ENDBRANCH  22  24
ENDBRANCH  16  18
BRANCH  13  32
HETATM   32  C   UNK N   1      42.241  34.677  47.453  0.00  0.00     0.272 C 
HETATM   33  O   UNK N   1      42.466  35.849  47.727  0.00  0.00    -0.266 OA
HETATM   34  N   UNK N   1      43.311  33.816  47.293  0.00  0.00    -0.343 N 
HETATM   35  C   UNK N   1      43.105  32.380  47.059  0.00  0.00     0.152 C 
HETATM   36  C   UNK N   1      44.657  34.339  47.574  0.00  0.00     0.152 C 
HETATM   37  C   UNK N   1      44.405  31.586  46.903  0.00  0.00     0.187 C 
HETATM   38  O   UNK N   1      45.378  32.045  47.817  0.00  0.00    -0.388 OA
HETATM   39  C   UNK N   1      45.780  33.321  47.366  0.00  0.00     0.187 C 
ENDBRANCH  13  32
TORSDOF 5
ENDMDL
