MODEL 1
REMARK VINA RESULT:      -8.5      0.000      0.000
REMARK  5 active torsions:
REMARK  status: ('A' for Active; 'I' for Inactive)
REMARK    1  A    between atoms: C_2  and  C_3 
REMARK       I    between atoms: C_2  and  N_32 
REMARK    2  A    between atoms: N_6  and  C_7 
REMARK    3  A    between atoms: N_10  and  C_11 
REMARK    4  A    between atoms: C_11  and  C_12 
REMARK    5  A    between atoms: C_12  and  N_13 
ROOT
HETATM    1  C   UNK N   1      40.106  38.301  51.050  0.00  0.00     0.126 A 
HETATM    2  N   UNK N   1      40.738  37.320  50.377  0.00  0.00    -0.292 N 
ATOM      3  HN  UNK N   1      40.296  36.684  49.714  1.00  0.00     0.187 HD
HETATM    4  N   UNK N   1      42.025  37.304  50.707  0.00  0.00    -0.284 N 
HETATM    5  C   UNK N   1      42.263  38.306  51.619  0.00  0.00     0.072 A 
HETATM    6  C   UNK N   1      41.036  38.948  51.857  0.00  0.00     0.019 A 
HETATM    7  C   UNK N   1      40.811  40.062  52.847  0.00  0.00     0.189 C 
HETATM    8  S   UNK N   1      41.785  39.626  54.279  0.00  0.00     0.180 S 
HETATM    9  O   UNK N   1      41.825  40.766  55.308  0.00  0.00    -0.222 OA
HETATM   10  O   UNK N   1      41.165  38.453  55.053  0.00  0.00    -0.222 OA
HETATM   11  C   UNK N   1      43.407  39.210  53.700  0.00  0.00     0.072 A 
HETATM   12  C   UNK N   1      44.528  39.477  54.493  0.00  0.00     0.024 A 
HETATM   13  C   UNK N   1      45.802  39.183  54.017  0.00  0.00     0.002 A 
HETATM   14  C   UNK N   1      45.958  38.636  52.747  0.00  0.00     0.001 A 
HETATM   15  C   UNK N   1      44.840  38.361  51.955  0.00  0.00     0.015 A 
HETATM   16  C   UNK N   1      43.533  38.625  52.414  0.00  0.00     0.014 A 
ENDROOT
BRANCH   4  17
HETATM   17  C   UNK N   1      42.881  36.206  50.210  0.00  0.00     0.138 C 
HETATM   18  C   UNK N   1      43.645  36.531  48.935  0.00  0.00     0.059 C 
HETATM   19  C   UNK N   1      43.978  35.140  48.446  0.00  0.00     0.274 C 
HETATM   20  N   UNK N   1      42.732  34.391  48.650  0.00  0.00     0.092 N 
HETATM   21  C   UNK N   1      42.214  34.847  49.960  0.00  0.00     0.299 C 
BRANCH  20  22
HETATM   22  C   UNK N   1      42.939  32.938  48.524  0.00  0.00     0.302 C 
BRANCH  22  23
HETATM   23  C   UNK N   1      43.135  32.506  47.060  0.00  0.00     0.302 C 
BRANCH  23  24
HETATM   24  N   UNK N   1      44.439  31.834  46.868  0.00  0.00     0.094 N 
HETATM   25  C   UNK N   1      45.180  32.354  45.694  0.00  0.00     0.298 C 
HETATM   26  C   UNK N   1      46.306  33.316  46.111  0.00  0.00     0.198 C 
HETATM   27  O   UNK N   1      47.268  32.718  46.973  0.00  0.00    -0.388 OA
HETATM   28  C   UNK N   1      46.749  31.663  47.776  0.00  0.00     0.198 C 
HETATM   29  C   UNK N   1      45.259  31.833  48.103  0.00  0.00     0.298 C 
ENDBRANCH  23  24
ENDBRANCH  22  23
ENDBRANCH  20  22
ENDBRANCH   4  17
BRANCH   1  30
HETATM   30  C   UNK N   1      38.628  38.598  50.962  0.00  0.00     0.272 C 
HETATM   31  O   UNK N   1      38.249  39.305  50.041  0.00  0.00    -0.266 OA
HETATM   32  N   UNK N   1      37.688  38.136  51.862  0.00  0.00    -0.343 N 
HETATM   33  C   UNK N   1      36.313  38.646  51.730  0.00  0.00     0.152 C 
HETATM   34  C   UNK N   1      38.068  37.308  53.010  0.00  0.00     0.152 C 
HETATM   35  C   UNK N   1      35.320  38.043  52.725  0.00  0.00     0.187 C 
HETATM   36  O   UNK N   1      35.926  37.871  53.987  0.00  0.00    -0.388 OA
HETATM   37  C   UNK N   1      36.870  36.831  53.839  0.00  0.00     0.187 C 
ENDBRANCH   1  30
TORSDOF 5
ENDMDL
MODEL 2
REMARK VINA RESULT:      -8.3      1.760      2.260
REMARK  5 active torsions:
REMARK  status: ('A' for Active; 'I' for Inactive)
REMARK    1  A    between atoms: C_2  and  C_3 
REMARK       I    between atoms: C_2  and  N_32 
REMARK    2  A    between atoms: N_6  and  C_7 
REMARK    3  A    between atoms: N_10  and  C_11 
REMARK    4  A    between atoms: C_11  and  C_12 
REMARK    5  A    between atoms: C_12  and  N_13 
ROOT
HETATM    1  C   UNK N   1      39.266  38.489  52.211  0.00  0.00     0.126 A 
HETATM    2  N   UNK N   1      40.127  37.941  51.333  0.00  0.00    -0.292 N 
ATOM      3  HN  UNK N   1      39.861  37.396  50.512  1.00  0.00     0.187 HD
HETATM    4  N   UNK N   1      41.376  38.214  51.694  0.00  0.00    -0.284 N 
HETATM    5  C   UNK N   1      41.351  38.972  52.841  0.00  0.00     0.072 A 
HETATM    6  C   UNK N   1      40.002  39.147  53.192  0.00  0.00     0.019 A 
HETATM    7  C   UNK N   1      39.505  39.856  54.426  0.00  0.00     0.189 C 
HETATM    8  S   UNK N   1      40.622  39.368  55.732  0.00  0.00     0.180 S 
HETATM    9  O   UNK N   1      40.374  40.166  57.020  0.00  0.00    -0.222 OA
HETATM   10  O   UNK N   1      40.399  37.909  56.155  0.00  0.00    -0.222 OA
HETATM   11  C   UNK N   1      42.270  39.603  55.125  0.00  0.00     0.072 A 
HETATM   12  C   UNK N   1      43.298  39.970  56.000  0.00  0.00     0.024 A 
HETATM   13  C   UNK N   1      44.582  40.190  55.511  0.00  0.00     0.002 A 
HETATM   14  C   UNK N   1      44.837  40.057  54.149  0.00  0.00     0.001 A 
HETATM   15  C   UNK N   1      43.815  39.683  53.273  0.00  0.00     0.015 A 
HETATM   16  C   UNK N   1      42.507  39.430  53.737  0.00  0.00     0.014 A 
ENDROOT
BRANCH   4  17
HETATM   17  C   UNK N   1      42.491  37.577  50.962  0.00  0.00     0.138 C 
HETATM   18  C   UNK N   1      43.116  38.449  49.883  0.00  0.00     0.059 C 
HETATM   19  C   UNK N   1      43.810  37.401  49.043  0.00  0.00     0.274 C 
HETATM   20  N   UNK N   1      42.820  36.321  48.946  0.00  0.00     0.092 N 
HETATM   21  C   UNK N   1      42.218  36.222  50.295  0.00  0.00     0.299 C 
BRANCH  20  22
HETATM   22  C   UNK N   1      43.415  35.078  48.427  0.00  0.00     0.302 C 
BRANCH  22  23
HETATM   23  C   UNK N   1      42.477  34.354  47.444  0.00  0.00     0.302 C 
BRANCH  23  24
HETATM   24  N   UNK N   1      43.226  33.812  46.288  0.00  0.00     0.094 N 
HETATM   25  C   UNK N   1      44.399  33.004  46.700  0.00  0.00     0.298 C 
HETATM   26  C   UNK N   1      44.121  31.495  46.586  0.00  0.00     0.198 C 
HETATM   27  O   UNK N   1      43.779  31.083  45.267  0.00  0.00    -0.388 OA
HETATM   28  C   UNK N   1      43.150  32.095  44.489  0.00  0.00     0.198 C 
HETATM   29  C   UNK N   1      42.347  33.093  45.335  0.00  0.00     0.298 C 
ENDBRANCH  23  24
ENDBRANCH  22  23
ENDBRANCH  20  22
ENDBRANCH   4  17
BRANCH   1  30
HETATM   30  C   UNK N   1      37.764  38.357  52.150  0.00  0.00     0.272 C 
HETATM   31  O   UNK N   1      37.127  39.331  51.776  0.00  0.00    -0.266 OA
HETATM   32  N   UNK N   1      37.068  37.217  52.503  0.00  0.00    -0.343 N 
HETATM   33  C   UNK N   1      35.599  37.302  52.541  0.00  0.00     0.152 C 
HETATM   34  C   UNK N   1      37.758  36.019  52.989  0.00  0.00     0.152 C 
HETATM   35  C   UNK N   1      34.901  35.985  52.882  0.00  0.00     0.187 C 
HETATM   36  O   UNK N   1      35.626  35.282  53.867  0.00  0.00    -0.388 OA
HETATM   37  C   UNK N   1      36.815  34.838  53.248  0.00  0.00     0.187 C 
ENDBRANCH   1  30
TORSDOF 5
ENDMDL
MODEL 3
REMARK VINA RESULT:      -8.0      2.833      3.525
REMARK  5 active torsions:
REMARK  status: ('A' for Active; 'I' for Inactive)
REMARK    1  A    between atoms: C_2  and  C_3 
REMARK       I    between atoms: C_2  and  N_32 
REMARK    2  A    between atoms: N_6  and  C_7 
REMARK    3  A    between atoms: N_10  and  C_11 
REMARK    4  A    between atoms: C_11  and  C_12 
REMARK    5  A    between atoms: C_12  and  N_13 
ROOT
HETATM    1  C   UNK N   1      41.283  39.536  52.976  0.00  0.00     0.126 A 
HETATM    2  N   UNK N   1      40.903  38.534  52.160  0.00  0.00    -0.292 N 
ATOM      3  HN  UNK N   1      39.948  38.189  52.059  1.00  0.00     0.187 HD
HETATM    4  N   UNK N   1      41.957  38.060  51.505  0.00  0.00    -0.284 N 
HETATM    5  C   UNK N   1      43.073  38.770  51.887  0.00  0.00     0.072 A 
HETATM    6  C   UNK N   1      42.656  39.714  52.840  0.00  0.00     0.019 A 
HETATM    7  C   UNK N   1      43.562  40.660  53.586  0.00  0.00     0.189 C 
HETATM    8  S   UNK N   1      45.020  39.707  53.978  0.00  0.00     0.180 S 
HETATM    9  O   UNK N   1      46.134  40.587  54.566  0.00  0.00    -0.222 OA
HETATM   10  O   UNK N   1      44.745  38.675  55.083  0.00  0.00    -0.222 OA
HETATM   11  C   UNK N   1      45.538  38.907  52.485  0.00  0.00     0.072 A 
HETATM   12  C   UNK N   1      46.897  38.672  52.246  0.00  0.00     0.024 A 
HETATM   13  C   UNK N   1      47.301  38.078  51.054  0.00  0.00     0.002 A 
HETATM   14  C   UNK N   1      46.352  37.731  50.097  0.00  0.00     0.001 A 
HETATM   15  C   UNK N   1      44.994  37.957  50.335  0.00  0.00     0.015 A 
HETATM   16  C   UNK N   1      44.547  38.536  51.541  0.00  0.00     0.014 A 
ENDROOT
BRANCH   4  17
HETATM   17  C   UNK N   1      41.802  36.850  50.672  0.00  0.00     0.138 C 
HETATM   18  C   UNK N   1      42.838  35.767  50.934  0.00  0.00     0.059 C 
HETATM   19  C   UNK N   1      42.728  34.960  49.661  0.00  0.00     0.274 C 
HETATM   20  N   UNK N   1      42.655  35.980  48.606  0.00  0.00     0.092 N 
HETATM   21  C   UNK N   1      41.773  37.037  49.149  0.00  0.00     0.299 C 
BRANCH  20  22
HETATM   22  C   UNK N   1      42.235  35.406  47.317  0.00  0.00     0.302 C 
BRANCH  22  23
HETATM   23  C   UNK N   1      42.679  33.940  47.163  0.00  0.00     0.302 C 
BRANCH  23  24
HETATM   24  N   UNK N   1      42.942  33.605  45.746  0.00  0.00     0.094 N 
HETATM   25  C   UNK N   1      44.190  32.824  45.570  0.00  0.00     0.298 C 
HETATM   26  C   UNK N   1      43.900  31.330  45.346  0.00  0.00     0.198 C 
HETATM   27  O   UNK N   1      43.092  31.077  44.203  0.00  0.00    -0.388 OA
HETATM   28  C   UNK N   1      42.209  32.143  43.872  0.00  0.00     0.198 C 
HETATM   29  C   UNK N   1      41.775  32.967  45.092  0.00  0.00     0.298 C 
ENDBRANCH  23  24
ENDBRANCH  22  23
ENDBRANCH  20  22
ENDBRANCH   4  17
BRANCH   1  30
HETATM   30  C   UNK N   1      40.364  40.291  53.906  0.00  0.00     0.272 C 
HETATM   31  O   UNK N   1      39.852  41.317  53.484  0.00  0.00    -0.266 OA
HETATM   32  N   UNK N   1      40.082  39.905  55.202  0.00  0.00    -0.343 N 
HETATM   33  C   UNK N   1      39.297  40.834  56.032  0.00  0.00     0.152 C 
HETATM   34  C   UNK N   1      40.681  38.704  55.791  0.00  0.00     0.152 C 
HETATM   35  C   UNK N   1      38.976  40.310  57.432  0.00  0.00     0.187 C 
HETATM   36  O   UNK N   1      40.076  39.599  57.958  0.00  0.00    -0.388 OA
HETATM   37  C   UNK N   1      40.177  38.406  57.208  0.00  0.00     0.187 C 
ENDBRANCH   1  30
TORSDOF 5
ENDMDL
MODEL 4
REMARK VINA RESULT:      -7.9      6.568     10.198
REMARK  5 active torsions:
REMARK  status: ('A' for Active; 'I' for Inactive)
REMARK    1  A    between atoms: C_2  and  C_3 
REMARK       I    between atoms: C_2  and  N_32 
REMARK    2  A    between atoms: N_6  and  C_7 
REMARK    3  A    between atoms: N_10  and  C_11 
REMARK    4  A    between atoms: C_11  and  C_12 
REMARK    5  A    between atoms: C_12  and  N_13 
ROOT
HETATM    1  C   UNK N   1      38.367  33.278  44.318  0.00  0.00     0.126 A 
HETATM    2  N   UNK N   1      39.523  33.358  45.004  0.00  0.00    -0.292 N 
ATOM      3  HN  UNK N   1      39.601  33.415  46.019  1.00  0.00     0.187 HD
HETATM    4  N   UNK N   1      40.550  33.351  44.160  0.00  0.00    -0.284 N 
HETATM    5  C   UNK N   1      40.068  33.257  42.875  0.00  0.00     0.072 A 
HETATM    6  C   UNK N   1      38.666  33.220  42.961  0.00  0.00     0.019 A 
HETATM    7  C   UNK N   1      37.719  33.192  41.788  0.00  0.00     0.189 C 
HETATM    8  S   UNK N   1      38.426  34.307  40.584  0.00  0.00     0.180 S 
HETATM    9  O   UNK N   1      37.684  34.238  39.241  0.00  0.00    -0.222 OA
HETATM   10  O   UNK N   1      38.276  35.775  41.013  0.00  0.00    -0.222 OA
HETATM   11  C   UNK N   1      40.135  33.874  40.411  0.00  0.00     0.072 A 
HETATM   12  C   UNK N   1      40.780  34.030  39.179  0.00  0.00     0.024 A 
HETATM   13  C   UNK N   1      42.112  33.652  39.039  0.00  0.00     0.002 A 
HETATM   14  C   UNK N   1      42.795  33.107  40.122  0.00  0.00     0.001 A 
HETATM   15  C   UNK N   1      42.156  32.957  41.356  0.00  0.00     0.015 A 
HETATM   16  C   UNK N   1      40.814  33.350  41.540  0.00  0.00     0.014 A 
ENDROOT
BRANCH   4  17
HETATM   17  C   UNK N   1      41.911  33.591  44.682  0.00  0.00     0.138 C 
HETATM   18  C   UNK N   1      42.792  32.352  44.738  0.00  0.00     0.059 C 
HETATM   19  C   UNK N   1      43.843  32.799  45.728  0.00  0.00     0.274 C 
HETATM   20  N   UNK N   1      43.068  33.471  46.780  0.00  0.00     0.092 N 
HETATM   21  C   UNK N   1      42.034  34.251  46.063  0.00  0.00     0.299 C 
BRANCH  20  22
HETATM   22  C   UNK N   1      43.931  34.248  47.685  0.00  0.00     0.302 C 
BRANCH  22  23
HETATM   23  C   UNK N   1      43.120  34.982  48.768  0.00  0.00     0.302 C 
BRANCH  23  24
HETATM   24  N   UNK N   1      43.279  36.449  48.656  0.00  0.00     0.094 N 
HETATM   25  C   UNK N   1      42.082  37.188  49.124  0.00  0.00     0.298 C 
HETATM   26  C   UNK N   1      42.290  37.779  50.529  0.00  0.00     0.198 C 
HETATM   27  O   UNK N   1      43.386  38.682  50.604  0.00  0.00    -0.388 OA
HETATM   28  C   UNK N   1      44.421  38.416  49.664  0.00  0.00     0.198 C 
HETATM   29  C   UNK N   1      44.529  36.930  49.292  0.00  0.00     0.298 C 
ENDBRANCH  23  24
ENDBRANCH  22  23
ENDBRANCH  20  22
ENDBRANCH   4  17
BRANCH   1  30
HETATM   30  C   UNK N   1      36.990  33.298  44.937  0.00  0.00     0.272 C 
HETATM   31  O   UNK N   1      36.570  34.371  45.344  0.00  0.00    -0.266 OA
HETATM   32  N   UNK N   1      36.188  32.184  45.085  0.00  0.00    -0.343 N 
HETATM   33  C   UNK N   1      34.942  32.341  45.853  0.00  0.00     0.152 C 
HETATM   34  C   UNK N   1      36.632  30.856  44.650  0.00  0.00     0.152 C 
HETATM   35  C   UNK N   1      34.081  31.078  45.922  0.00  0.00     0.187 C 
HETATM   36  O   UNK N   1      34.893  29.933  46.058  0.00  0.00    -0.388 OA
HETATM   37  C   UNK N   1      35.565  29.770  44.827  0.00  0.00     0.187 C 
ENDBRANCH   1  30
TORSDOF 5
ENDMDL
MODEL 5
REMARK VINA RESULT:      -7.9      3.162      4.120
REMARK  5 active torsions:
REMARK  status: ('A' for Active; 'I' for Inactive)
REMARK    1  A    between atoms: C_2  and  C_3 
REMARK       I    between atoms: C_2  and  N_32 
REMARK    2  A    between atoms: N_6  and  C_7 
REMARK    3  A    between atoms: N_10  and  C_11 
REMARK    4  A    between atoms: C_11  and  C_12 
REMARK    5  A    between atoms: C_12  and  N_13 
ROOT
HETATM    1  C   UNK N   1      38.363  38.605  52.463  0.00  0.00     0.126 A 
HETATM    2  N   UNK N   1      39.244  38.525  51.448  0.00  0.00    -0.292 N 
ATOM      3  HN  UNK N   1      39.041  38.146  50.523  1.00  0.00     0.187 HD
HETATM    4  N   UNK N   1      40.420  39.011  51.831  0.00  0.00    -0.284 N 
HETATM    5  C   UNK N   1      40.321  39.436  53.136  0.00  0.00     0.072 A 
HETATM    6  C   UNK N   1      39.008  39.171  53.559  0.00  0.00     0.019 A 
HETATM    7  C   UNK N   1      38.474  39.407  54.949  0.00  0.00     0.189 C 
HETATM    8  S   UNK N   1      39.791  38.918  56.050  0.00  0.00     0.180 S 
HETATM    9  O   UNK N   1      39.480  39.288  57.508  0.00  0.00    -0.222 OA
HETATM   10  O   UNK N   1      39.965  37.392  56.088  0.00  0.00    -0.222 OA
HETATM   11  C   UNK N   1      41.271  39.706  55.477  0.00  0.00     0.072 A 
HETATM   12  C   UNK N   1      42.258  40.099  56.387  0.00  0.00     0.024 A 
HETATM   13  C   UNK N   1      43.401  40.751  55.935  0.00  0.00     0.002 A 
HETATM   14  C   UNK N   1      43.552  41.023  54.578  0.00  0.00     0.001 A 
HETATM   15  C   UNK N   1      42.572  40.625  53.665  0.00  0.00     0.015 A 
HETATM   16  C   UNK N   1      41.412  39.942  54.085  0.00  0.00     0.014 A 
ENDROOT
BRANCH   4  17
HETATM   17  C   UNK N   1      41.582  38.878  50.927  0.00  0.00     0.138 C 
HETATM   18  C   UNK N   1      41.245  38.989  49.448  0.00  0.00     0.059 C 
HETATM   19  C   UNK N   1      42.461  38.334  48.834  0.00  0.00     0.274 C 
HETATM   20  N   UNK N   1      42.686  37.154  49.678  0.00  0.00     0.092 N 
HETATM   21  C   UNK N   1      42.444  37.615  51.064  0.00  0.00     0.299 C 
BRANCH  20  22
HETATM   22  C   UNK N   1      44.007  36.549  49.436  0.00  0.00     0.302 C 
BRANCH  22  23
HETATM   23  C   UNK N   1      45.115  37.611  49.314  0.00  0.00     0.302 C 
BRANCH  23  24
HETATM   24  N   UNK N   1      46.206  37.362  50.282  0.00  0.00     0.094 N 
HETATM   25  C   UNK N   1      47.550  37.500  49.671  0.00  0.00     0.298 C 
HETATM   26  C   UNK N   1      48.209  38.840  50.039  0.00  0.00     0.198 C 
HETATM   27  O   UNK N   1      48.373  39.021  51.441  0.00  0.00    -0.388 OA
HETATM   28  C   UNK N   1      47.407  38.337  52.231  0.00  0.00     0.198 C 
HETATM   29  C   UNK N   1      46.058  38.168  51.517  0.00  0.00     0.298 C 
ENDBRANCH  23  24
ENDBRANCH  22  23
ENDBRANCH  20  22
ENDBRANCH   4  17
BRANCH   1  30
HETATM   30  C   UNK N   1      36.937  38.113  52.414  0.00  0.00     0.272 C 
HETATM   31  O   UNK N   1      36.060  38.942  52.221  0.00  0.00    -0.266 OA
HETATM   32  N   UNK N   1      36.562  36.795  52.587  0.00  0.00    -0.343 N 
HETATM   33  C   UNK N   1      35.122  36.503  52.671  0.00  0.00     0.152 C 
HETATM   34  C   UNK N   1      37.551  35.746  52.853  0.00  0.00     0.152 C 
HETATM   35  C   UNK N   1      34.787  35.017  52.804  0.00  0.00     0.187 C 
HETATM   36  O   UNK N   1      35.721  34.373  53.643  0.00  0.00    -0.388 OA
HETATM   37  C   UNK N   1      36.941  34.342  52.933  0.00  0.00     0.187 C 
ENDBRANCH   1  30
TORSDOF 5
ENDMDL
MODEL 6
REMARK VINA RESULT:      -7.8      1.558      2.030
REMARK  5 active torsions:
REMARK  status: ('A' for Active; 'I' for Inactive)
REMARK    1  A    between atoms: C_2  and  C_3 
REMARK       I    between atoms: C_2  and  N_32 
REMARK    2  A    between atoms: N_6  and  C_7 
REMARK    3  A    between atoms: N_10  and  C_11 
REMARK    4  A    between atoms: C_11  and  C_12 
REMARK    5  A    between atoms: C_12  and  N_13 
ROOT
HETATM    1  C   UNK N   1      40.358  38.257  50.715  0.00  0.00     0.126 A 
HETATM    2  N   UNK N   1      40.968  37.222  50.107  0.00  0.00    -0.292 N 
ATOM      3  HN  UNK N   1      40.517  36.571  49.463  1.00  0.00     0.187 HD
HETATM    4  N   UNK N   1      42.245  37.173  50.470  0.00  0.00    -0.284 N 
HETATM    5  C   UNK N   1      42.499  38.209  51.339  0.00  0.00     0.072 A 
HETATM    6  C   UNK N   1      41.293  38.906  51.515  0.00  0.00     0.019 A 
HETATM    7  C   UNK N   1      41.087  40.075  52.445  0.00  0.00     0.189 C 
HETATM    8  S   UNK N   1      42.010  39.672  53.920  0.00  0.00     0.180 S 
HETATM    9  O   UNK N   1      42.070  40.858  54.895  0.00  0.00    -0.222 OA
HETATM   10  O   UNK N   1      41.326  38.562  54.733  0.00  0.00    -0.222 OA
HETATM   11  C   UNK N   1      43.628  39.169  53.404  0.00  0.00     0.072 A 
HETATM   12  C   UNK N   1      44.739  39.431  54.211  0.00  0.00     0.024 A 
HETATM   13  C   UNK N   1      46.012  39.067  53.783  0.00  0.00     0.002 A 
HETATM   14  C   UNK N   1      46.177  38.454  52.544  0.00  0.00     0.001 A 
HETATM   15  C   UNK N   1      45.068  38.183  51.738  0.00  0.00     0.015 A 
HETATM   16  C   UNK N   1      43.762  38.518  52.150  0.00  0.00     0.014 A 
ENDROOT
BRANCH   4  17
HETATM   17  C   UNK N   1      43.069  36.022  50.047  0.00  0.00     0.138 C 
HETATM   18  C   UNK N   1      44.068  36.333  48.942  0.00  0.00     0.059 C 
HETATM   19  C   UNK N   1      44.352  34.944  48.421  0.00  0.00     0.274 C 
HETATM   20  N   UNK N   1      43.026  34.315  48.362  0.00  0.00     0.092 N 
HETATM   21  C   UNK N   1      42.334  34.752  49.596  0.00  0.00     0.299 C 
BRANCH  20  22
HETATM   22  C   UNK N   1      43.118  32.858  48.172  0.00  0.00     0.302 C 
BRANCH  22  23
HETATM   23  C   UNK N   1      43.836  32.489  46.862  0.00  0.00     0.302 C 
BRANCH  23  24
HETATM   24  N   UNK N   1      43.144  33.068  45.688  0.00  0.00     0.094 N 
HETATM   25  C   UNK N   1      43.664  32.540  44.405  0.00  0.00     0.298 C 
HETATM   26  C   UNK N   1      42.726  31.480  43.802  0.00  0.00     0.198 C 
HETATM   27  O   UNK N   1      41.415  31.969  43.545  0.00  0.00    -0.388 OA
HETATM   28  C   UNK N   1      41.012  33.026  44.408  0.00  0.00     0.198 C 
HETATM   29  C   UNK N   1      41.670  32.957  45.793  0.00  0.00     0.298 C 
ENDBRANCH  23  24
ENDBRANCH  22  23
ENDBRANCH  20  22
ENDBRANCH   4  17
BRANCH   1  30
HETATM   30  C   UNK N   1      38.895  38.604  50.576  0.00  0.00     0.272 C 
HETATM   31  O   UNK N   1      38.580  39.368  49.676  0.00  0.00    -0.266 OA
HETATM   32  N   UNK N   1      37.901  38.127  51.408  0.00  0.00    -0.343 N 
HETATM   33  C   UNK N   1      36.549  38.687  51.240  0.00  0.00     0.152 C 
HETATM   34  C   UNK N   1      38.203  37.232  52.528  0.00  0.00     0.152 C 
HETATM   35  C   UNK N   1      35.493  38.066  52.156  0.00  0.00     0.187 C 
HETATM   36  O   UNK N   1      36.034  37.813  53.434  0.00  0.00    -0.388 OA
HETATM   37  C   UNK N   1      36.953  36.753  53.276  0.00  0.00     0.187 C 
ENDBRANCH   1  30
TORSDOF 5
ENDMDL
MODEL 7
REMARK VINA RESULT:      -7.8      4.743      8.797
REMARK  5 active torsions:
REMARK  status: ('A' for Active; 'I' for Inactive)
REMARK    1  A    between atoms: C_2  and  C_3 
REMARK       I    between atoms: C_2  and  N_32 
REMARK    2  A    between atoms: N_6  and  C_7 
REMARK    3  A    between atoms: N_10  and  C_11 
REMARK    4  A    between atoms: C_11  and  C_12 
REMARK    5  A    between atoms: C_12  and  N_13 
ROOT
HETATM    1  C   UNK N   1      39.259  33.524  45.965  0.00  0.00     0.126 A 
HETATM    2  N   UNK N   1      39.521  34.133  47.137  0.00  0.00    -0.292 N 
ATOM      3  HN  UNK N   1      38.831  34.604  47.722  1.00  0.00     0.187 HD
HETATM    4  N   UNK N   1      40.816  34.030  47.420  0.00  0.00    -0.284 N 
HETATM    5  C   UNK N   1      41.436  33.327  46.413  0.00  0.00     0.072 A 
HETATM    6  C   UNK N   1      40.450  33.005  45.466  0.00  0.00     0.019 A 
HETATM    7  C   UNK N   1      40.694  32.298  44.157  0.00  0.00     0.189 C 
HETATM    8  S   UNK N   1      42.223  32.976  43.532  0.00  0.00     0.180 S 
HETATM    9  O   UNK N   1      42.721  32.213  42.295  0.00  0.00    -0.222 OA
HETATM   10  O   UNK N   1      42.043  34.415  43.027  0.00  0.00    -0.222 OA
HETATM   11  C   UNK N   1      43.400  32.916  44.855  0.00  0.00     0.072 A 
HETATM   12  C   UNK N   1      44.758  32.716  44.582  0.00  0.00     0.024 A 
HETATM   13  C   UNK N   1      45.672  32.632  45.627  0.00  0.00     0.002 A 
HETATM   14  C   UNK N   1      45.231  32.733  46.943  0.00  0.00     0.001 A 
HETATM   15  C   UNK N   1      43.877  32.940  47.220  0.00  0.00     0.015 A 
HETATM   16  C   UNK N   1      42.926  33.053  46.185  0.00  0.00     0.014 A 
ENDROOT
BRANCH   4  17
HETATM   17  C   UNK N   1      41.358  34.764  48.583  0.00  0.00     0.138 C 
HETATM   18  C   UNK N   1      40.302  35.301  49.537  0.00  0.00     0.059 C 
HETATM   19  C   UNK N   1      41.096  36.361  50.265  0.00  0.00     0.274 C 
HETATM   20  N   UNK N   1      41.849  37.030  49.196  0.00  0.00     0.092 N 
HETATM   21  C   UNK N   1      42.301  35.941  48.300  0.00  0.00     0.299 C 
BRANCH  20  22
HETATM   22  C   UNK N   1      42.916  37.890  49.733  0.00  0.00     0.302 C 
BRANCH  22  23
HETATM   23  C   UNK N   1      43.308  37.499  51.169  0.00  0.00     0.302 C 
BRANCH  23  24
HETATM   24  N   UNK N   1      43.748  38.679  51.946  0.00  0.00     0.094 N 
HETATM   25  C   UNK N   1      42.622  39.363  52.627  0.00  0.00     0.298 C 
HETATM   26  C   UNK N   1      42.572  39.023  54.126  0.00  0.00     0.198 C 
HETATM   27  O   UNK N   1      43.757  39.384  54.826  0.00  0.00    -0.388 OA
HETATM   28  C   UNK N   1      44.931  39.374  54.022  0.00  0.00     0.198 C 
HETATM   29  C   UNK N   1      44.862  38.360  52.870  0.00  0.00     0.298 C 
ENDBRANCH  23  24
ENDBRANCH  22  23
ENDBRANCH  20  22
ENDBRANCH   4  17
BRANCH   1  30
HETATM   30  C   UNK N   1      37.905  33.470  45.301  0.00  0.00     0.272 C 
HETATM   31  O   UNK N   1      37.696  34.245  44.380  0.00  0.00    -0.266 OA
HETATM   32  N   UNK N   1      36.888  32.615  45.679  0.00  0.00    -0.343 N 
HETATM   33  C   UNK N   1      35.574  32.797  45.038  0.00  0.00     0.152 C 
HETATM   34  C   UNK N   1      37.049  31.678  46.794  0.00  0.00     0.152 C 
HETATM   35  C   UNK N   1      34.519  31.776  45.465  0.00  0.00     0.187 C 
HETATM   36  O   UNK N   1      34.636  31.490  46.842  0.00  0.00    -0.388 OA
HETATM   37  C   UNK N   1      35.836  30.763  46.999  0.00  0.00     0.187 C 
ENDBRANCH   1  30
TORSDOF 5
ENDMDL
MODEL 8
REMARK VINA RESULT:      -7.7      3.801      6.343
REMARK  5 active torsions:
REMARK  status: ('A' for Active; 'I' for Inactive)
REMARK    1  A    between atoms: C_2  and  C_3 
REMARK       I    between atoms: C_2  and  N_32 
REMARK    2  A    between atoms: N_6  and  C_7 
REMARK    3  A    between atoms: N_10  and  C_11 
REMARK    4  A    between atoms: C_11  and  C_12 
REMARK    5  A    between atoms: C_12  and  N_13 
ROOT
HETATM    1  C   UNK N   1      37.804  35.986  52.733  0.00  0.00     0.126 A 
HETATM    2  N   UNK N   1      38.945  36.147  52.037  0.00  0.00    -0.292 N 
ATOM      3  HN  UNK N   1      39.825  35.669  52.233  1.00  0.00     0.187 HD
HETATM    4  N   UNK N   1      38.756  37.024  51.057  0.00  0.00    -0.284 N 
HETATM    5  C   UNK N   1      37.450  37.455  51.093  0.00  0.00     0.072 A 
HETATM    6  C   UNK N   1      36.829  36.805  52.172  0.00  0.00     0.019 A 
HETATM    7  C   UNK N   1      35.411  37.033  52.631  0.00  0.00     0.189 C 
HETATM    8  S   UNK N   1      35.146  38.793  52.488  0.00  0.00     0.180 S 
HETATM    9  O   UNK N   1      33.676  39.168  52.727  0.00  0.00    -0.222 OA
HETATM   10  O   UNK N   1      35.905  39.572  53.573  0.00  0.00    -0.222 OA
HETATM   11  C   UNK N   1      35.689  39.274  50.872  0.00  0.00     0.072 A 
HETATM   12  C   UNK N   1      35.055  40.324  50.198  0.00  0.00     0.024 A 
HETATM   13  C   UNK N   1      35.461  40.672  48.914  0.00  0.00     0.002 A 
HETATM   14  C   UNK N   1      36.489  39.965  48.298  0.00  0.00     0.001 A 
HETATM   15  C   UNK N   1      37.131  38.922  48.970  0.00  0.00     0.015 A 
HETATM   16  C   UNK N   1      36.761  38.556  50.281  0.00  0.00     0.014 A 
ENDROOT
BRANCH   4  17
HETATM   17  C   UNK N   1      39.917  37.476  50.263  0.00  0.00     0.138 C 
HETATM   18  C   UNK N   1      40.535  36.400  49.382  0.00  0.00     0.059 C 
HETATM   19  C   UNK N   1      41.902  36.993  49.131  0.00  0.00     0.274 C 
HETATM   20  N   UNK N   1      42.309  37.502  50.448  0.00  0.00     0.092 N 
HETATM   21  C   UNK N   1      41.089  38.115  51.021  0.00  0.00     0.299 C 
BRANCH  20  22
HETATM   22  C   UNK N   1      43.478  38.391  50.355  0.00  0.00     0.302 C 
BRANCH  22  23
HETATM   23  C   UNK N   1      44.617  37.766  49.530  0.00  0.00     0.302 C 
BRANCH  23  24
HETATM   24  N   UNK N   1      45.774  37.420  50.385  0.00  0.00     0.094 N 
HETATM   25  C   UNK N   1      47.046  37.367  49.626  0.00  0.00     0.298 C 
HETATM   26  C   UNK N   1      47.898  38.628  49.852  0.00  0.00     0.198 C 
HETATM   27  O   UNK N   1      48.241  38.840  51.217  0.00  0.00    -0.388 OA
HETATM   28  C   UNK N   1      47.295  38.312  52.140  0.00  0.00     0.198 C 
HETATM   29  C   UNK N   1      45.864  38.285  51.586  0.00  0.00     0.298 C 
ENDBRANCH  23  24
ENDBRANCH  22  23
ENDBRANCH  20  22
ENDBRANCH   4  17
BRANCH   1  30
HETATM   30  C   UNK N   1      37.645  35.097  53.944  0.00  0.00     0.272 C 
HETATM   31  O   UNK N   1      37.283  33.946  53.755  0.00  0.00    -0.266 OA
HETATM   32  N   UNK N   1      37.868  35.508  55.244  0.00  0.00    -0.343 N 
HETATM   33  C   UNK N   1      37.514  34.570  56.322  0.00  0.00     0.152 C 
HETATM   34  C   UNK N   1      38.275  36.881  55.554  0.00  0.00     0.152 C 
HETATM   35  C   UNK N   1      37.845  35.073  57.728  0.00  0.00     0.187 C 
HETATM   36  O   UNK N   1      37.579  36.455  57.833  0.00  0.00    -0.388 OA
HETATM   37  C   UNK N   1      38.549  37.111  57.045  0.00  0.00     0.187 C 
ENDBRANCH   1  30
TORSDOF 5
ENDMDL
MODEL 9
REMARK VINA RESULT:      -7.6      4.007      7.209
REMARK  5 active torsions:
REMARK  status: ('A' for Active; 'I' for Inactive)
REMARK    1  A    between atoms: C_2  and  C_3 
REMARK       I    between atoms: C_2  and  N_32 
REMARK    2  A    between atoms: N_6  and  C_7 
REMARK    3  A    between atoms: N_10  and  C_11 
REMARK    4  A    between atoms: C_11  and  C_12 
REMARK    5  A    between atoms: C_12  and  N_13 
ROOT
HETATM    1  C   UNK N   1      37.645  35.924  52.865  0.00  0.00     0.126 A 
HETATM    2  N   UNK N   1      38.820  36.095  52.229  0.00  0.00    -0.292 N 
ATOM      3  HN  UNK N   1      39.688  35.610  52.458  1.00  0.00     0.187 HD
HETATM    4  N   UNK N   1      38.680  36.990  51.257  0.00  0.00    -0.284 N 
HETATM    5  C   UNK N   1      37.375  37.425  51.237  0.00  0.00     0.072 A 
HETATM    6  C   UNK N   1      36.701  36.757  52.273  0.00  0.00     0.019 A 
HETATM    7  C   UNK N   1      35.263  36.981  52.667  0.00  0.00     0.189 C 
HETATM    8  S   UNK N   1      35.010  38.745  52.544  0.00  0.00     0.180 S 
HETATM    9  O   UNK N   1      33.531  39.120  52.718  0.00  0.00    -0.222 OA
HETATM   10  O   UNK N   1      35.717  39.501  53.678  0.00  0.00    -0.222 OA
HETATM   11  C   UNK N   1      35.632  39.253  50.965  0.00  0.00     0.072 A 
HETATM   12  C   UNK N   1      35.033  40.317  50.281  0.00  0.00     0.024 A 
HETATM   13  C   UNK N   1      35.502  40.687  49.024  0.00  0.00     0.002 A 
HETATM   14  C   UNK N   1      36.557  39.989  48.446  0.00  0.00     0.001 A 
HETATM   15  C   UNK N   1      37.163  38.931  49.129  0.00  0.00     0.015 A 
HETATM   16  C   UNK N   1      36.729  38.543  50.413  0.00  0.00     0.014 A 
ENDROOT
BRANCH   4  17
HETATM   17  C   UNK N   1      39.880  37.452  50.528  0.00  0.00     0.138 C 
HETATM   18  C   UNK N   1      40.576  36.374  49.711  0.00  0.00     0.059 C 
HETATM   19  C   UNK N   1      41.943  36.993  49.535  0.00  0.00     0.274 C 
HETATM   20  N   UNK N   1      42.253  37.537  50.863  0.00  0.00     0.092 N 
HETATM   21  C   UNK N   1      40.987  38.133  51.345  0.00  0.00     0.299 C 
BRANCH  20  22
HETATM   22  C   UNK N   1      43.407  38.451  50.826  0.00  0.00     0.302 C 
BRANCH  22  23
HETATM   23  C   UNK N   1      44.418  38.153  51.947  0.00  0.00     0.302 C 
BRANCH  23  24
HETATM   24  N   UNK N   1      44.671  39.353  52.776  0.00  0.00     0.094 N 
HETATM   25  C   UNK N   1      43.436  39.876  53.408  0.00  0.00     0.298 C 
HETATM   26  C   UNK N   1      43.347  39.487  54.894  0.00  0.00     0.198 C 
HETATM   27  O   UNK N   1      44.441  39.965  55.668  0.00  0.00    -0.388 OA
HETATM   28  C   UNK N   1      45.649  40.120  54.931  0.00  0.00     0.198 C 
HETATM   29  C   UNK N   1      45.765  39.141  53.754  0.00  0.00     0.298 C 
ENDBRANCH  23  24
ENDBRANCH  22  23
ENDBRANCH  20  22
ENDBRANCH   4  17
BRANCH   1  30
HETATM   30  C   UNK N   1      37.427  35.014  54.050  0.00  0.00     0.272 C 
HETATM   31  O   UNK N   1      36.877  33.943  53.844  0.00  0.00    -0.266 OA
HETATM   32  N   UNK N   1      37.792  35.323  55.346  0.00  0.00    -0.343 N 
HETATM   33  C   UNK N   1      37.365  34.401  56.411  0.00  0.00     0.152 C 
HETATM   34  C   UNK N   1      38.429  36.601  55.678  0.00  0.00     0.152 C 
HETATM   35  C   UNK N   1      37.859  34.780  57.808  0.00  0.00     0.187 C 
HETATM   36  O   UNK N   1      37.820  36.180  57.983  0.00  0.00    -0.388 OA
HETATM   37  C   UNK N   1      38.830  36.715  57.153  0.00  0.00     0.187 C 
ENDBRANCH   1  30
TORSDOF 5
ENDMDL
