MODEL 1
REMARK VINA RESULT:      -9.0      0.000      0.000
REMARK  3 active torsions:
REMARK  status: ('A' for Active; 'I' for Inactive)
REMARK    1  A    between atoms: C_2  and  C_3 
REMARK       I    between atoms: C_2  and  N_31 
REMARK    2  A    between atoms: N_6  and  C_7 
REMARK    3  A    between atoms: N_10  and  C_11 
ROOT
HETATM    1  C   UNK N   1      40.596  38.857  51.897  0.00  0.00     0.126 A 
HETATM    2  N   UNK N   1      40.373  38.942  53.223  0.00  0.00    -0.292 N 
ATOM      3  HN  UNK N   1      39.457  38.886  53.668  1.00  0.00     0.187 HD
HETATM    4  N   UNK N   1      41.525  39.107  53.864  0.00  0.00    -0.284 N 
HETATM    5  C   UNK N   1      42.547  39.125  52.941  0.00  0.00     0.072 A 
HETATM    6  C   UNK N   1      41.963  38.962  51.676  0.00  0.00     0.019 A 
HETATM    7  C   UNK N   1      42.714  38.840  50.375  0.00  0.00     0.189 C 
HETATM    8  S   UNK N   1      44.130  37.816  50.741  0.00  0.00     0.183 S 
HETATM    9  O   UNK N   1      43.729  36.349  50.956  0.00  0.00    -0.222 OA
HETATM   10  O   UNK N   1      45.099  37.761  49.551  0.00  0.00    -0.222 OA
HETATM   11  C   UNK N   1      44.897  38.483  52.196  0.00  0.00     0.110 A 
HETATM   12  C   UNK N   1      46.287  38.405  52.372  0.00  0.00     0.138 A 
HETATM   13  F   UNK N   1      47.068  37.782  51.454  0.00  0.00    -0.204 F 
HETATM   14  C   UNK N   1      46.878  38.974  53.496  0.00  0.00     0.044 A 
HETATM   15  C   UNK N   1      46.089  39.631  54.433  0.00  0.00     0.004 A 
HETATM   16  C   UNK N   1      44.705  39.704  54.266  0.00  0.00     0.015 A 
HETATM   17  C   UNK N   1      44.066  39.119  53.157  0.00  0.00     0.018 A 
ENDROOT
BRANCH   4  18
HETATM   18  C   UNK N   1      41.533  39.056  55.344  0.00  0.00     0.138 C 
HETATM   19  C   UNK N   1      40.382  38.299  55.999  0.00  0.00     0.059 C 
HETATM   20  C   UNK N   1      40.191  39.091  57.289  0.00  0.00     0.275 C 
HETATM   21  N   UNK N   1      40.370  40.488  56.865  0.00  0.00     0.095 N 
HETATM   22  C   UNK N   1      41.577  40.430  56.026  0.00  0.00     0.300 C 
BRANCH  21  23
HETATM   23  C   UNK N   1      40.420  41.483  57.962  0.00  0.00     0.227 C 
HETATM   24  C   UNK N   1      39.268  42.525  57.844  0.00  0.00     0.062 C 
HETATM   25  C   UNK N   1      38.903  43.143  59.210  0.00  0.00     0.169 C 
HETATM   26  O   UNK N   1      40.035  43.234  60.042  0.00  0.00    -0.391 OA
HETATM   27  C   UNK N   1      40.508  41.935  60.407  0.00  0.00     0.169 C 
HETATM   28  C   UNK N   1      40.281  40.824  59.340  0.00  0.00     0.062 C 
ENDBRANCH  21  23
ENDBRANCH   4  18
BRANCH   1  29
HETATM   29  C   UNK N   1      39.533  38.647  50.848  0.00  0.00     0.272 C 
HETATM   30  O   UNK N   1      39.396  39.518  50.000  0.00  0.00    -0.266 OA
HETATM   31  N   UNK N   1      38.725  37.529  50.773  0.00  0.00    -0.343 N 
HETATM   32  C   UNK N   1      38.877  36.414  51.714  0.00  0.00     0.152 C 
HETATM   33  C   UNK N   1      37.839  37.410  49.605  0.00  0.00     0.152 C 
HETATM   34  C   UNK N   1      37.867  35.283  51.487  0.00  0.00     0.187 C 
HETATM   35  O   UNK N   1      37.682  35.052  50.106  0.00  0.00    -0.388 OA
HETATM   36  C   UNK N   1      36.960  36.158  49.610  0.00  0.00     0.187 C 
ENDBRANCH   1  29
TORSDOF 3
ENDMDL
MODEL 2
REMARK VINA RESULT:      -8.6      4.413      7.599
REMARK  3 active torsions:
REMARK  status: ('A' for Active; 'I' for Inactive)
REMARK    1  A    between atoms: C_2  and  C_3 
REMARK       I    between atoms: C_2  and  N_31 
REMARK    2  A    between atoms: N_6  and  C_7 
REMARK    3  A    between atoms: N_10  and  C_11 
ROOT
HETATM    1  C   UNK N   1      40.465  35.151  48.589  0.00  0.00     0.126 A 
HETATM    2  N   UNK N   1      40.948  36.309  49.078  0.00  0.00    -0.292 N 
ATOM      3  HN  UNK N   1      41.778  36.790  48.733  1.00  0.00     0.187 HD
HETATM    4  N   UNK N   1      40.181  36.733  50.077  0.00  0.00    -0.284 N 
HETATM    5  C   UNK N   1      39.151  35.836  50.255  0.00  0.00     0.072 A 
HETATM    6  C   UNK N   1      39.321  34.819  49.303  0.00  0.00     0.019 A 
HETATM    7  C   UNK N   1      38.377  33.666  49.078  0.00  0.00     0.189 C 
HETATM    8  S   UNK N   1      36.739  34.359  49.224  0.00  0.00     0.183 S 
HETATM    9  O   UNK N   1      36.384  35.235  48.013  0.00  0.00    -0.222 OA
HETATM   10  O   UNK N   1      35.666  33.261  49.210  0.00  0.00    -0.222 OA
HETATM   11  C   UNK N   1      36.703  35.308  50.724  0.00  0.00     0.110 A 
HETATM   12  C   UNK N   1      35.524  35.410  51.478  0.00  0.00     0.138 A 
HETATM   13  F   UNK N   1      34.378  34.821  51.055  0.00  0.00    -0.204 F 
HETATM   14  C   UNK N   1      35.525  36.119  52.675  0.00  0.00     0.044 A 
HETATM   15  C   UNK N   1      36.698  36.711  53.127  0.00  0.00     0.004 A 
HETATM   16  C   UNK N   1      37.872  36.618  52.376  0.00  0.00     0.015 A 
HETATM   17  C   UNK N   1      37.907  35.933  51.148  0.00  0.00     0.018 A 
ENDROOT
BRANCH   4  18
HETATM   18  C   UNK N   1      40.432  38.074  50.652  0.00  0.00     0.138 C 
HETATM   19  C   UNK N   1      40.946  39.137  49.686  0.00  0.00     0.059 C 
HETATM   20  C   UNK N   1      41.841  39.970  50.599  0.00  0.00     0.275 C 
HETATM   21  N   UNK N   1      42.505  38.965  51.443  0.00  0.00     0.095 N 
HETATM   22  C   UNK N   1      41.398  38.084  51.844  0.00  0.00     0.300 C 
BRANCH  21  23
HETATM   23  C   UNK N   1      43.307  39.508  52.563  0.00  0.00     0.227 C 
HETATM   24  C   UNK N   1      42.478  39.578  53.881  0.00  0.00     0.062 C 
HETATM   25  C   UNK N   1      43.376  39.521  55.134  0.00  0.00     0.169 C 
HETATM   26  O   UNK N   1      44.621  40.133  54.892  0.00  0.00    -0.391 OA
HETATM   27  C   UNK N   1      45.380  39.390  53.934  0.00  0.00     0.169 C 
HETATM   28  C   UNK N   1      44.537  38.643  52.860  0.00  0.00     0.062 C 
ENDBRANCH  21  23
ENDBRANCH   4  18
BRANCH   1  29
HETATM   29  C   UNK N   1      41.057  34.378  47.437  0.00  0.00     0.272 C 
HETATM   30  O   UNK N   1      40.595  34.583  46.324  0.00  0.00    -0.266 OA
HETATM   31  N   UNK N   1      42.095  33.476  47.559  0.00  0.00    -0.343 N 
HETATM   32  C   UNK N   1      42.744  33.229  48.850  0.00  0.00     0.152 C 
HETATM   33  C   UNK N   1      42.654  32.915  46.318  0.00  0.00     0.152 C 
HETATM   34  C   UNK N   1      43.852  32.171  48.784  0.00  0.00     0.187 C 
HETATM   35  O   UNK N   1      44.611  32.321  47.603  0.00  0.00    -0.388 OA
HETATM   36  C   UNK N   1      43.782  31.906  46.540  0.00  0.00     0.187 C 
ENDBRANCH   1  29
TORSDOF 3
ENDMDL
MODEL 3
REMARK VINA RESULT:      -8.5      3.173      6.831
REMARK  3 active torsions:
REMARK  status: ('A' for Active; 'I' for Inactive)
REMARK    1  A    between atoms: C_2  and  C_3 
REMARK       I    between atoms: C_2  and  N_31 
REMARK    2  A    between atoms: N_6  and  C_7 
REMARK    3  A    between atoms: N_10  and  C_11 
ROOT
HETATM    1  C   UNK N   1      38.980  38.514  52.582  0.00  0.00     0.126 A 
HETATM    2  N   UNK N   1      39.987  38.672  51.702  0.00  0.00    -0.292 N 
ATOM      3  HN  UNK N   1      39.909  38.544  50.693  1.00  0.00     0.187 HD
HETATM    4  N   UNK N   1      41.098  39.020  52.343  0.00  0.00    -0.284 N 
HETATM    5  C   UNK N   1      40.822  39.107  53.690  0.00  0.00     0.072 A 
HETATM    6  C   UNK N   1      39.465  38.787  53.855  0.00  0.00     0.019 A 
HETATM    7  C   UNK N   1      38.708  38.833  55.157  0.00  0.00     0.189 C 
HETATM    8  S   UNK N   1      39.292  40.298  55.993  0.00  0.00     0.183 S 
HETATM    9  O   UNK N   1      38.762  41.579  55.331  0.00  0.00    -0.222 OA
HETATM   10  O   UNK N   1      38.749  40.374  57.427  0.00  0.00    -0.222 OA
HETATM   11  C   UNK N   1      41.066  40.251  55.953  0.00  0.00     0.110 A 
HETATM   12  C   UNK N   1      41.820  40.792  57.006  0.00  0.00     0.138 A 
HETATM   13  F   UNK N   1      41.210  41.396  58.056  0.00  0.00    -0.204 F 
HETATM   14  C   UNK N   1      43.209  40.706  56.981  0.00  0.00     0.044 A 
HETATM   15  C   UNK N   1      43.843  40.071  55.920  0.00  0.00     0.004 A 
HETATM   16  C   UNK N   1      43.097  39.539  54.866  0.00  0.00     0.015 A 
HETATM   17  C   UNK N   1      41.693  39.629  54.840  0.00  0.00     0.018 A 
ENDROOT
BRANCH   4  18
HETATM   18  C   UNK N   1      42.288  39.409  51.554  0.00  0.00     0.138 C 
HETATM   19  C   UNK N   1      42.174  39.252  50.040  0.00  0.00     0.059 C 
HETATM   20  C   UNK N   1      43.609  38.894  49.663  0.00  0.00     0.275 C 
HETATM   21  N   UNK N   1      44.035  37.992  50.743  0.00  0.00     0.095 N 
HETATM   22  C   UNK N   1      43.581  38.687  51.957  0.00  0.00     0.300 C 
BRANCH  21  23
HETATM   23  C   UNK N   1      45.470  37.625  50.734  0.00  0.00     0.227 C 
HETATM   24  C   UNK N   1      46.149  37.999  49.382  0.00  0.00     0.062 C 
HETATM   25  C   UNK N   1      47.667  38.226  49.539  0.00  0.00     0.169 C 
HETATM   26  O   UNK N   1      48.200  37.398  50.545  0.00  0.00    -0.391 OA
HETATM   27  C   UNK N   1      47.698  37.768  51.833  0.00  0.00     0.169 C 
HETATM   28  C   UNK N   1      46.253  38.348  51.837  0.00  0.00     0.062 C 
ENDBRANCH  21  23
ENDBRANCH   4  18
BRANCH   1  29
HETATM   29  C   UNK N   1      37.563  38.141  52.226  0.00  0.00     0.272 C 
HETATM   30  O   UNK N   1      36.836  39.026  51.799  0.00  0.00    -0.266 OA
HETATM   31  N   UNK N   1      37.046  36.864  52.330  0.00  0.00    -0.343 N 
HETATM   32  C   UNK N   1      37.878  35.738  52.770  0.00  0.00     0.152 C 
HETATM   33  C   UNK N   1      35.691  36.636  51.805  0.00  0.00     0.152 C 
HETATM   34  C   UNK N   1      37.113  34.412  52.852  0.00  0.00     0.187 C 
HETATM   35  O   UNK N   1      36.227  34.282  51.760  0.00  0.00    -0.388 OA
HETATM   36  C   UNK N   1      35.183  35.204  51.982  0.00  0.00     0.187 C 
ENDBRANCH   1  29
TORSDOF 3
ENDMDL
MODEL 4
REMARK VINA RESULT:      -7.9      3.290      7.574
REMARK  3 active torsions:
REMARK  status: ('A' for Active; 'I' for Inactive)
REMARK    1  A    between atoms: C_2  and  C_3 
REMARK       I    between atoms: C_2  and  N_31 
REMARK    2  A    between atoms: N_6  and  C_7 
REMARK    3  A    between atoms: N_10  and  C_11 
ROOT
HETATM    1  C   UNK N   1      41.050  39.369  54.262  0.00  0.00     0.126 A 
HETATM    2  N   UNK N   1      40.608  39.060  53.028  0.00  0.00    -0.292 N 
ATOM      3  HN  UNK N   1      39.638  39.121  52.720  1.00  0.00     0.187 HD
HETATM    4  N   UNK N   1      41.626  38.666  52.270  0.00  0.00    -0.284 N 
HETATM    5  C   UNK N   1      42.782  38.722  53.018  0.00  0.00     0.072 A 
HETATM    6  C   UNK N   1      42.425  39.175  54.297  0.00  0.00     0.019 A 
HETATM    7  C   UNK N   1      43.385  39.464  55.421  0.00  0.00     0.189 C 
HETATM    8  S   UNK N   1      44.787  40.258  54.654  0.00  0.00     0.183 S 
HETATM    9  O   UNK N   1      44.455  41.692  54.211  0.00  0.00    -0.222 OA
HETATM   10  O   UNK N   1      45.939  40.440  55.653  0.00  0.00    -0.222 OA
HETATM   11  C   UNK N   1      45.260  39.260  53.265  0.00  0.00     0.110 A 
HETATM   12  C   UNK N   1      46.604  39.168  52.874  0.00  0.00     0.138 A 
HETATM   13  F   UNK N   1      47.565  39.872  53.524  0.00  0.00    -0.204 F 
HETATM   14  C   UNK N   1      46.964  38.344  51.812  0.00  0.00     0.044 A 
HETATM   15  C   UNK N   1      45.991  37.603  51.152  0.00  0.00     0.004 A 
HETATM   16  C   UNK N   1      44.651  37.698  51.532  0.00  0.00     0.015 A 
HETATM   17  C   UNK N   1      44.242  38.539  52.583  0.00  0.00     0.018 A 
ENDROOT
BRANCH   4  18
HETATM   18  C   UNK N   1      41.396  38.438  50.825  0.00  0.00     0.138 C 
HETATM   19  C   UNK N   1      39.946  38.224  50.399  0.00  0.00     0.059 C 
HETATM   20  C   UNK N   1      40.113  37.253  49.233  0.00  0.00     0.275 C 
HETATM   21  N   UNK N   1      41.177  36.346  49.689  0.00  0.00     0.095 N 
HETATM   22  C   UNK N   1      42.188  37.265  50.233  0.00  0.00     0.300 C 
BRANCH  21  23
HETATM   23  C   UNK N   1      41.681  35.397  48.669  0.00  0.00     0.227 C 
HETATM   24  C   UNK N   1      42.737  34.421  49.268  0.00  0.00     0.062 C 
HETATM   25  C   UNK N   1      42.809  33.093  48.485  0.00  0.00     0.169 C 
HETATM   26  O   UNK N   1      42.533  33.297  47.120  0.00  0.00    -0.391 OA
HETATM   27  C   UNK N   1      41.174  33.697  46.925  0.00  0.00     0.169 C 
HETATM   28  C   UNK N   1      40.558  34.531  48.086  0.00  0.00     0.062 C 
ENDBRANCH  21  23
ENDBRANCH   4  18
BRANCH   1  29
HETATM   29  C   UNK N   1      40.189  39.874  55.394  0.00  0.00     0.272 C 
HETATM   30  O   UNK N   1      39.839  41.044  55.357  0.00  0.00    -0.266 OA
HETATM   31  N   UNK N   1      39.758  39.095  56.450  0.00  0.00    -0.343 N 
HETATM   32  C   UNK N   1      40.082  37.666  56.526  0.00  0.00     0.152 C 
HETATM   33  C   UNK N   1      38.805  39.700  57.393  0.00  0.00     0.152 C 
HETATM   34  C   UNK N   1      39.540  36.985  57.788  0.00  0.00     0.187 C 
HETATM   35  O   UNK N   1      38.244  37.456  58.089  0.00  0.00    -0.388 OA
HETATM   36  C   UNK N   1      38.397  38.782  58.547  0.00  0.00     0.187 C 
ENDBRANCH   1  29
TORSDOF 3
ENDMDL
MODEL 5
REMARK VINA RESULT:      -7.8      4.679      8.400
REMARK  3 active torsions:
REMARK  status: ('A' for Active; 'I' for Inactive)
REMARK    1  A    between atoms: C_2  and  C_3 
REMARK       I    between atoms: C_2  and  N_31 
REMARK    2  A    between atoms: N_6  and  C_7 
REMARK    3  A    between atoms: N_10  and  C_11 
ROOT
HETATM    1  C   UNK N   1      40.445  34.936  48.287  0.00  0.00     0.126 A 
HETATM    2  N   UNK N   1      39.293  34.507  48.835  0.00  0.00    -0.292 N 
ATOM      3  HN  UNK N   1      38.785  33.669  48.553  1.00  0.00     0.187 HD
HETATM    4  N   UNK N   1      38.916  35.338  49.802  0.00  0.00    -0.284 N 
HETATM    5  C   UNK N   1      39.848  36.346  49.907  0.00  0.00     0.072 A 
HETATM    6  C   UNK N   1      40.836  36.097  48.943  0.00  0.00     0.019 A 
HETATM    7  C   UNK N   1      42.096  36.902  48.753  0.00  0.00     0.189 C 
HETATM    8  S   UNK N   1      42.665  37.285  50.400  0.00  0.00     0.183 S 
HETATM    9  O   UNK N   1      43.243  36.048  51.104  0.00  0.00    -0.222 OA
HETATM   10  O   UNK N   1      43.842  38.272  50.367  0.00  0.00    -0.222 OA
HETATM   11  C   UNK N   1      41.277  37.933  51.297  0.00  0.00     0.110 A 
HETATM   12  C   UNK N   1      41.458  38.908  52.290  0.00  0.00     0.138 A 
HETATM   13  F   UNK N   1      42.701  39.346  52.613  0.00  0.00    -0.204 F 
HETATM   14  C   UNK N   1      40.355  39.439  52.952  0.00  0.00     0.044 A 
HETATM   15  C   UNK N   1      39.076  39.011  52.615  0.00  0.00     0.004 A 
HETATM   16  C   UNK N   1      38.892  38.035  51.633  0.00  0.00     0.015 A 
HETATM   17  C   UNK N   1      39.982  37.455  50.960  0.00  0.00     0.018 A 
ENDROOT
BRANCH   4  18
HETATM   18  C   UNK N   1      37.762  34.968  50.653  0.00  0.00     0.138 C 
HETATM   19  C   UNK N   1      38.064  34.725  52.129  0.00  0.00     0.059 C 
HETATM   20  C   UNK N   1      37.048  33.640  52.473  0.00  0.00     0.275 C 
HETATM   21  N   UNK N   1      37.052  32.774  51.285  0.00  0.00     0.095 N 
HETATM   22  C   UNK N   1      36.988  33.733  50.172  0.00  0.00     0.300 C 
BRANCH  21  23
HETATM   23  C   UNK N   1      36.009  31.722  51.262  0.00  0.00     0.227 C 
HETATM   24  C   UNK N   1      34.712  32.186  51.991  0.00  0.00     0.062 C 
HETATM   25  C   UNK N   1      33.461  31.447  51.473  0.00  0.00     0.169 C 
HETATM   26  O   UNK N   1      33.778  30.133  51.078  0.00  0.00    -0.391 OA
HETATM   27  C   UNK N   1      34.632  30.134  49.931  0.00  0.00     0.169 C 
HETATM   28  C   UNK N   1      35.604  31.347  49.832  0.00  0.00     0.062 C 
ENDBRANCH  21  23
ENDBRANCH   4  18
BRANCH   1  29
HETATM   29  C   UNK N   1      41.191  34.242  47.175  0.00  0.00     0.272 C 
HETATM   30  O   UNK N   1      40.852  34.490  46.027  0.00  0.00    -0.266 OA
HETATM   31  N   UNK N   1      42.241  33.366  47.373  0.00  0.00    -0.343 N 
HETATM   32  C   UNK N   1      42.747  33.073  48.718  0.00  0.00     0.152 C 
HETATM   33  C   UNK N   1      42.958  32.887  46.180  0.00  0.00     0.152 C 
HETATM   34  C   UNK N   1      43.892  32.054  48.729  0.00  0.00     0.187 C 
HETATM   35  O   UNK N   1      44.776  32.287  47.653  0.00  0.00    -0.388 OA
HETATM   36  C   UNK N   1      44.089  31.902  46.482  0.00  0.00     0.187 C 
ENDBRANCH   1  29
TORSDOF 3
ENDMDL
MODEL 6
REMARK VINA RESULT:      -7.8      4.324      7.088
REMARK  3 active torsions:
REMARK  status: ('A' for Active; 'I' for Inactive)
REMARK    1  A    between atoms: C_2  and  C_3 
REMARK       I    between atoms: C_2  and  N_31 
REMARK    2  A    between atoms: N_6  and  C_7 
REMARK    3  A    between atoms: N_10  and  C_11 
ROOT
HETATM    1  C   UNK N   1      37.931  36.369  52.835  0.00  0.00     0.126 A 
HETATM    2  N   UNK N   1      39.061  36.964  52.407  0.00  0.00    -0.292 N 
ATOM      3  HN  UNK N   1      39.775  36.520  51.830  1.00  0.00     0.187 HD
HETATM    4  N   UNK N   1      39.107  38.217  52.848  0.00  0.00    -0.284 N 
HETATM    5  C   UNK N   1      37.970  38.468  53.584  0.00  0.00     0.072 A 
HETATM    6  C   UNK N   1      37.206  37.291  53.580  0.00  0.00     0.019 A 
HETATM    7  C   UNK N   1      35.840  37.132  54.195  0.00  0.00     0.189 C 
HETATM    8  S   UNK N   1      34.975  38.647  53.823  0.00  0.00     0.183 S 
HETATM    9  O   UNK N   1      34.590  38.732  52.338  0.00  0.00    -0.222 OA
HETATM   10  O   UNK N   1      33.627  38.713  54.556  0.00  0.00    -0.222 OA
HETATM   11  C   UNK N   1      36.046  39.988  54.277  0.00  0.00     0.110 A 
HETATM   12  C   UNK N   1      35.517  41.197  54.755  0.00  0.00     0.138 A 
HETATM   13  F   UNK N   1      34.176  41.380  54.841  0.00  0.00    -0.204 F 
HETATM   14  C   UNK N   1      36.372  42.221  55.150  0.00  0.00     0.044 A 
HETATM   15  C   UNK N   1      37.748  42.036  55.084  0.00  0.00     0.004 A 
HETATM   16  C   UNK N   1      38.279  40.838  54.601  0.00  0.00     0.015 A 
HETATM   17  C   UNK N   1      37.448  39.788  54.167  0.00  0.00     0.018 A 
ENDROOT
BRANCH   4  18
HETATM   18  C   UNK N   1      40.181  39.109  52.357  0.00  0.00     0.138 C 
HETATM   19  C   UNK N   1      40.919  38.650  51.103  0.00  0.00     0.059 C 
HETATM   20  C   UNK N   1      42.322  39.194  51.360  0.00  0.00     0.275 C 
HETATM   21  N   UNK N   1      42.527  38.956  52.796  0.00  0.00     0.095 N 
HETATM   22  C   UNK N   1      41.267  39.425  53.395  0.00  0.00     0.300 C 
BRANCH  21  23
HETATM   23  C   UNK N   1      43.752  39.558  53.371  0.00  0.00     0.227 C 
HETATM   24  C   UNK N   1      43.523  40.035  54.837  0.00  0.00     0.062 C 
HETATM   25  C   UNK N   1      44.836  40.069  55.647  0.00  0.00     0.169 C 
HETATM   26  O   UNK N   1      45.931  40.389  54.821  0.00  0.00    -0.391 OA
HETATM   27  C   UNK N   1      46.180  39.347  53.873  0.00  0.00     0.169 C 
HETATM   28  C   UNK N   1      44.918  38.564  53.406  0.00  0.00     0.062 C 
ENDBRANCH  21  23
ENDBRANCH   4  18
BRANCH   1  29
HETATM   29  C   UNK N   1      37.520  34.953  52.518  0.00  0.00     0.272 C 
HETATM   30  O   UNK N   1      37.479  34.157  53.445  0.00  0.00    -0.266 OA
HETATM   31  N   UNK N   1      37.169  34.509  51.258  0.00  0.00    -0.343 N 
HETATM   32  C   UNK N   1      37.130  35.422  50.111  0.00  0.00     0.152 C 
HETATM   33  C   UNK N   1      36.651  33.136  51.143  0.00  0.00     0.152 C 
HETATM   34  C   UNK N   1      36.749  34.732  48.796  0.00  0.00     0.187 C 
HETATM   35  O   UNK N   1      35.723  33.786  49.010  0.00  0.00    -0.388 OA
HETATM   36  C   UNK N   1      36.310  32.713  49.713  0.00  0.00     0.187 C 
ENDBRANCH   1  29
TORSDOF 3
ENDMDL
MODEL 7
REMARK VINA RESULT:      -7.8      5.140      8.781
REMARK  3 active torsions:
REMARK  status: ('A' for Active; 'I' for Inactive)
REMARK    1  A    between atoms: C_2  and  C_3 
REMARK       I    between atoms: C_2  and  N_31 
REMARK    2  A    between atoms: N_6  and  C_7 
REMARK    3  A    between atoms: N_10  and  C_11 
ROOT
HETATM    1  C   UNK N   1      41.858  34.244  48.546  0.00  0.00     0.126 A 
HETATM    2  N   UNK N   1      40.525  34.117  48.685  0.00  0.00    -0.292 N 
ATOM      3  HN  UNK N   1      39.989  33.279  48.460  1.00  0.00     0.187 HD
HETATM    4  N   UNK N   1      40.011  35.247  49.160  0.00  0.00    -0.284 N 
HETATM    5  C   UNK N   1      41.032  36.151  49.353  0.00  0.00     0.072 A 
HETATM    6  C   UNK N   1      42.223  35.518  48.966  0.00  0.00     0.019 A 
HETATM    7  C   UNK N   1      43.605  36.106  49.084  0.00  0.00     0.189 C 
HETATM    8  S   UNK N   1      43.624  36.956  50.652  0.00  0.00     0.183 S 
HETATM    9  O   UNK N   1      43.653  35.972  51.832  0.00  0.00    -0.222 OA
HETATM   10  O   UNK N   1      44.913  37.774  50.826  0.00  0.00    -0.222 OA
HETATM   11  C   UNK N   1      42.174  37.977  50.715  0.00  0.00     0.110 A 
HETATM   12  C   UNK N   1      42.189  39.204  51.396  0.00  0.00     0.138 A 
HETATM   13  F   UNK N   1      43.301  39.616  52.055  0.00  0.00    -0.204 F 
HETATM   14  C   UNK N   1      41.058  40.013  51.396  0.00  0.00     0.044 A 
HETATM   15  C   UNK N   1      39.920  39.610  50.707  0.00  0.00     0.004 A 
HETATM   16  C   UNK N   1      39.897  38.386  50.034  0.00  0.00     0.015 A 
HETATM   17  C   UNK N   1      41.011  37.527  50.033  0.00  0.00     0.018 A 
ENDROOT
BRANCH   4  18
HETATM   18  C   UNK N   1      38.582  35.275  49.549  0.00  0.00     0.138 C 
HETATM   19  C   UNK N   1      38.291  35.336  51.045  0.00  0.00     0.059 C 
HETATM   20  C   UNK N   1      36.994  34.538  51.136  0.00  0.00     0.275 C 
HETATM   21  N   UNK N   1      37.203  33.430  50.192  0.00  0.00     0.095 N 
HETATM   22  C   UNK N   1      37.754  34.103  49.005  0.00  0.00     0.300 C 
BRANCH  21  23
HETATM   23  C   UNK N   1      36.016  32.583  49.934  0.00  0.00     0.227 C 
HETATM   24  C   UNK N   1      36.130  31.836  48.571  0.00  0.00     0.062 C 
HETATM   25  C   UNK N   1      35.297  30.537  48.551  0.00  0.00     0.169 C 
HETATM   26  O   UNK N   1      34.141  30.667  49.343  0.00  0.00    -0.391 OA
HETATM   27  C   UNK N   1      34.478  30.795  50.727  0.00  0.00     0.169 C 
HETATM   28  C   UNK N   1      35.832  31.510  51.013  0.00  0.00     0.062 C 
ENDBRANCH  21  23
ENDBRANCH   4  18
BRANCH   1  29
HETATM   29  C   UNK N   1      42.789  33.164  48.053  0.00  0.00     0.272 C 
HETATM   30  O   UNK N   1      43.346  32.473  48.893  0.00  0.00    -0.266 OA
HETATM   31  N   UNK N   1      43.032  32.897  46.720  0.00  0.00    -0.343 N 
HETATM   32  C   UNK N   1      42.349  33.641  45.656  0.00  0.00     0.152 C 
HETATM   33  C   UNK N   1      43.851  31.717  46.403  0.00  0.00     0.152 C 
HETATM   34  C   UNK N   1      42.777  33.219  44.246  0.00  0.00     0.187 C 
HETATM   35  O   UNK N   1      42.932  31.818  44.172  0.00  0.00    -0.388 OA
HETATM   36  C   UNK N   1      44.095  31.506  44.908  0.00  0.00     0.187 C 
ENDBRANCH   1  29
TORSDOF 3
ENDMDL
MODEL 8
REMARK VINA RESULT:      -7.6      4.479      7.344
REMARK  3 active torsions:
REMARK  status: ('A' for Active; 'I' for Inactive)
REMARK    1  A    between atoms: C_2  and  C_3 
REMARK       I    between atoms: C_2  and  N_31 
REMARK    2  A    between atoms: N_6  and  C_7 
REMARK    3  A    between atoms: N_10  and  C_11 
ROOT
HETATM    1  C   UNK N   1      37.874  36.675  53.254  0.00  0.00     0.126 A 
HETATM    2  N   UNK N   1      39.003  37.219  52.763  0.00  0.00    -0.292 N 
ATOM      3  HN  UNK N   1      39.682  36.733  52.178  1.00  0.00     0.187 HD
HETATM    4  N   UNK N   1      39.100  38.486  53.152  0.00  0.00    -0.284 N 
HETATM    5  C   UNK N   1      37.999  38.799  53.919  0.00  0.00     0.072 A 
HETATM    6  C   UNK N   1      37.203  37.645  53.988  0.00  0.00     0.019 A 
HETATM    7  C   UNK N   1      35.857  37.550  54.658  0.00  0.00     0.189 C 
HETATM    8  S   UNK N   1      35.021  39.075  54.259  0.00  0.00     0.183 S 
HETATM    9  O   UNK N   1      34.583  39.114  52.787  0.00  0.00    -0.222 OA
HETATM   10  O   UNK N   1      33.704  39.209  55.037  0.00  0.00    -0.222 OA
HETATM   11  C   UNK N   1      36.145  40.400  54.620  0.00  0.00     0.110 A 
HETATM   12  C   UNK N   1      35.669  41.642  55.069  0.00  0.00     0.138 A 
HETATM   13  F   UNK N   1      34.338  41.868  55.197  0.00  0.00    -0.204 F 
HETATM   14  C   UNK N   1      36.567  42.655  55.392  0.00  0.00     0.044 A 
HETATM   15  C   UNK N   1      37.934  42.427  55.284  0.00  0.00     0.004 A 
HETATM   16  C   UNK N   1      38.412  41.196  54.830  0.00  0.00     0.015 A 
HETATM   17  C   UNK N   1      37.537  40.155  54.468  0.00  0.00     0.018 A 
ENDROOT
BRANCH   4  18
HETATM   18  C   UNK N   1      40.180  39.327  52.588  0.00  0.00     0.138 C 
HETATM   19  C   UNK N   1      40.780  38.858  51.267  0.00  0.00     0.059 C 
HETATM   20  C   UNK N   1      42.230  39.313  51.412  0.00  0.00     0.275 C 
HETATM   21  N   UNK N   1      42.541  39.028  52.821  0.00  0.00     0.095 N 
HETATM   22  C   UNK N   1      41.367  39.554  53.534  0.00  0.00     0.300 C 
BRANCH  21  23
HETATM   23  C   UNK N   1      43.845  39.545  53.299  0.00  0.00     0.227 C 
HETATM   24  C   UNK N   1      43.737  40.121  54.743  0.00  0.00     0.062 C 
HETATM   25  C   UNK N   1      45.089  40.077  55.486  0.00  0.00     0.169 C 
HETATM   26  O   UNK N   1      46.163  40.248  54.591  0.00  0.00    -0.391 OA
HETATM   27  C   UNK N   1      46.267  39.137  53.696  0.00  0.00     0.169 C 
HETATM   28  C   UNK N   1      44.916  38.450  53.338  0.00  0.00     0.062 C 
ENDBRANCH  21  23
ENDBRANCH   4  18
BRANCH   1  29
HETATM   29  C   UNK N   1      37.411  35.260  53.009  0.00  0.00     0.272 C 
HETATM   30  O   UNK N   1      36.948  35.001  51.908  0.00  0.00    -0.266 OA
HETATM   31  N   UNK N   1      37.499  34.242  53.939  0.00  0.00    -0.343 N 
HETATM   32  C   UNK N   1      38.105  34.462  55.256  0.00  0.00     0.152 C 
HETATM   33  C   UNK N   1      37.140  32.886  53.495  0.00  0.00     0.152 C 
HETATM   34  C   UNK N   1      38.079  33.219  56.154  0.00  0.00     0.187 C 
HETATM   35  O   UNK N   1      38.365  32.058  55.404  0.00  0.00    -0.388 OA
HETATM   36  C   UNK N   1      37.239  31.821  54.589  0.00  0.00     0.187 C 
ENDBRANCH   1  29
TORSDOF 3
ENDMDL
MODEL 9
REMARK VINA RESULT:      -7.5      4.504      6.886
REMARK  3 active torsions:
REMARK  status: ('A' for Active; 'I' for Inactive)
REMARK    1  A    between atoms: C_2  and  C_3 
REMARK       I    between atoms: C_2  and  N_31 
REMARK    2  A    between atoms: N_6  and  C_7 
REMARK    3  A    between atoms: N_10  and  C_11 
ROOT
HETATM    1  C   UNK N   1      40.555  34.993  48.572  0.00  0.00     0.126 A 
HETATM    2  N   UNK N   1      39.536  34.529  49.319  0.00  0.00    -0.292 N 
ATOM      3  HN  UNK N   1      39.044  33.650  49.158  1.00  0.00     0.187 HD
HETATM    4  N   UNK N   1      39.268  35.385  50.299  0.00  0.00    -0.284 N 
HETATM    5  C   UNK N   1      40.139  36.448  50.208  0.00  0.00     0.072 A 
HETATM    6  C   UNK N   1      40.973  36.206  49.106  0.00  0.00     0.019 A 
HETATM    7  C   UNK N   1      42.131  37.070  48.679  0.00  0.00     0.189 C 
HETATM    8  S   UNK N   1      42.933  37.567  50.194  0.00  0.00     0.183 S 
HETATM    9  O   UNK N   1      43.695  36.401  50.843  0.00  0.00    -0.222 OA
HETATM   10  O   UNK N   1      44.024  38.615  49.928  0.00  0.00    -0.222 OA
HETATM   11  C   UNK N   1      41.670  38.181  51.279  0.00  0.00     0.110 A 
HETATM   12  C   UNK N   1      41.946  39.214  52.188  0.00  0.00     0.138 A 
HETATM   13  F   UNK N   1      43.194  39.737  52.284  0.00  0.00    -0.204 F 
HETATM   14  C   UNK N   1      40.933  39.715  52.999  0.00  0.00     0.044 A 
HETATM   15  C   UNK N   1      39.646  39.200  52.894  0.00  0.00     0.004 A 
HETATM   16  C   UNK N   1      39.368  38.167  51.997  0.00  0.00     0.015 A 
HETATM   17  C   UNK N   1      40.371  37.615  51.179  0.00  0.00     0.018 A 
ENDROOT
BRANCH   4  18
HETATM   18  C   UNK N   1      38.293  34.995  51.343  0.00  0.00     0.138 C 
HETATM   19  C   UNK N   1      37.494  33.722  51.078  0.00  0.00     0.059 C 
HETATM   20  C   UNK N   1      36.163  34.054  51.747  0.00  0.00     0.275 C 
HETATM   21  N   UNK N   1      35.950  35.469  51.409  0.00  0.00     0.095 N 
HETATM   22  C   UNK N   1      37.260  36.079  51.683  0.00  0.00     0.300 C 
BRANCH  21  23
HETATM   23  C   UNK N   1      34.805  36.118  52.089  0.00  0.00     0.227 C 
HETATM   24  C   UNK N   1      33.926  35.079  52.849  0.00  0.00     0.062 C 
HETATM   25  C   UNK N   1      33.158  35.720  54.024  0.00  0.00     0.169 C 
HETATM   26  O   UNK N   1      32.820  37.056  53.739  0.00  0.00    -0.391 OA
HETATM   27  C   UNK N   1      33.991  37.874  53.653  0.00  0.00     0.169 C 
HETATM   28  C   UNK N   1      35.265  37.151  53.125  0.00  0.00     0.062 C 
ENDBRANCH  21  23
ENDBRANCH   4  18
BRANCH   1  29
HETATM   29  C   UNK N   1      41.155  34.286  47.382  0.00  0.00     0.272 C 
HETATM   30  O   UNK N   1      40.691  34.542  46.280  0.00  0.00    -0.266 OA
HETATM   31  N   UNK N   1      42.204  33.390  47.458  0.00  0.00    -0.343 N 
HETATM   32  C   UNK N   1      42.855  33.085  48.736  0.00  0.00     0.152 C 
HETATM   33  C   UNK N   1      42.769  32.899  46.191  0.00  0.00     0.152 C 
HETATM   34  C   UNK N   1      43.974  32.044  48.617  0.00  0.00     0.187 C 
HETATM   35  O   UNK N   1      44.732  32.262  47.445  0.00  0.00    -0.388 OA
HETATM   36  C   UNK N   1      43.908  31.892  46.362  0.00  0.00     0.187 C 
ENDBRANCH   1  29
TORSDOF 3
ENDMDL
