MODEL 1
REMARK VINA RESULT:      -9.2      0.000      0.000
REMARK  5 active torsions:
REMARK  status: ('A' for Active; 'I' for Inactive)
REMARK    1  A    between atoms: C_2  and  C_3 
REMARK       I    between atoms: C_2  and  N_33 
REMARK    2  A    between atoms: N_6  and  C_7 
REMARK    3  A    between atoms: N_11  and  C_12 
REMARK    4  A    between atoms: C_12  and  C_13 
REMARK    5  A    between atoms: C_13  and  N_14 
ROOT
HETATM    1  C   UNK N   1      39.999  38.908  54.566  0.00  0.00     0.126 A 
HETATM    2  N   UNK N   1      40.153  38.854  53.228  0.00  0.00    -0.292 N 
ATOM      3  HN  UNK N   1      39.403  38.709  52.553  1.00  0.00     0.187 HD
HETATM    4  N   UNK N   1      41.435  39.019  52.930  0.00  0.00    -0.284 N 
HETATM    5  C   UNK N   1      42.149  39.157  54.082  0.00  0.00     0.072 A 
HETATM    6  C   UNK N   1      41.241  39.123  55.146  0.00  0.00     0.019 A 
HETATM    7  C   UNK N   1      41.539  39.354  56.605  0.00  0.00     0.189 C 
HETATM    8  S   UNK N   1      42.984  40.428  56.661  0.00  0.00     0.180 S 
HETATM    9  O   UNK N   1      42.574  41.897  56.472  0.00  0.00    -0.222 OA
HETATM   10  O   UNK N   1      43.631  40.429  58.053  0.00  0.00    -0.222 OA
HETATM   11  C   UNK N   1      44.144  39.960  55.405  0.00  0.00     0.072 A 
HETATM   12  C   UNK N   1      45.517  40.156  55.587  0.00  0.00     0.024 A 
HETATM   13  C   UNK N   1      46.416  39.707  54.621  0.00  0.00     0.002 A 
HETATM   14  C   UNK N   1      45.947  39.047  53.487  0.00  0.00     0.001 A 
HETATM   15  C   UNK N   1      44.575  38.859  53.295  0.00  0.00     0.015 A 
HETATM   16  C   UNK N   1      43.643  39.341  54.240  0.00  0.00     0.014 A 
ENDROOT
BRANCH   4  17
HETATM   17  C   UNK N   1      41.884  39.149  51.533  0.00  0.00     0.137 C 
HETATM   18  C   UNK N   1      40.698  39.509  50.602  0.00  0.00     0.031 C 
HETATM   19  C   UNK N   1      40.949  39.065  49.148  0.00  0.00     0.032 C 
HETATM   20  C   UNK N   1      42.442  39.087  48.827  0.00  0.00     0.272 C 
HETATM   21  N   UNK N   1      43.182  38.109  49.679  0.00  0.00     0.092 N 
HETATM   22  C   UNK N   1      42.592  37.887  51.034  0.00  0.00     0.299 C 
BRANCH  21  23
HETATM   23  C   UNK N   1      44.630  38.421  49.746  0.00  0.00     0.302 C 
BRANCH  23  24
HETATM   24  C   UNK N   1      45.453  37.239  50.284  0.00  0.00     0.303 C 
BRANCH  24  25
HETATM   25  N   UNK N   1      46.731  37.132  49.552  0.00  0.00     0.102 N 
HETATM   26  C   UNK N   1      47.215  38.440  49.090  0.00  0.00     0.353 A 
HETATM   27  C   UNK N   1      48.418  38.402  50.014  0.00  0.00     0.295 A 
HETATM   28  F   UNK N   1      48.350  39.344  51.026  0.00  0.00    -0.203 F 
HETATM   29  F   UNK N   1      49.630  38.354  49.347  0.00  0.00    -0.203 F 
HETATM   30  C   UNK N   1      47.901  37.040  50.438  0.00  0.00     0.353 A 
ENDBRANCH  24  25
ENDBRANCH  23  24
ENDBRANCH  21  23
ENDBRANCH   4  17
BRANCH   1  31
HETATM   31  C   UNK N   1      38.699  38.754  55.292  0.00  0.00     0.272 C 
HETATM   32  O   UNK N   1      38.442  37.652  55.760  0.00  0.00    -0.266 OA
HETATM   33  N   UNK N   1      37.799  39.785  55.478  0.00  0.00    -0.343 N 
HETATM   34  C   UNK N   1      36.586  39.503  56.257  0.00  0.00     0.152 C 
HETATM   35  C   UNK N   1      38.144  41.162  55.098  0.00  0.00     0.152 C 
HETATM   36  C   UNK N   1      35.660  40.706  56.411  0.00  0.00     0.187 C 
HETATM   37  O   UNK N   1      36.421  41.871  56.654  0.00  0.00    -0.388 OA
HETATM   38  C   UNK N   1      37.059  42.193  55.438  0.00  0.00     0.187 C 
ENDBRANCH   1  31
TORSDOF 5
ENDMDL
MODEL 2
REMARK VINA RESULT:      -8.8      1.190      2.002
REMARK  5 active torsions:
REMARK  status: ('A' for Active; 'I' for Inactive)
REMARK    1  A    between atoms: C_2  and  C_3 
REMARK       I    between atoms: C_2  and  N_33 
REMARK    2  A    between atoms: N_6  and  C_7 
REMARK    3  A    between atoms: N_11  and  C_12 
REMARK    4  A    between atoms: C_12  and  C_13 
REMARK    5  A    between atoms: C_13  and  N_14 
ROOT
HETATM    1  C   UNK N   1      39.840  39.024  54.681  0.00  0.00     0.126 A 
HETATM    2  N   UNK N   1      39.974  38.941  53.342  0.00  0.00    -0.292 N 
ATOM      3  HN  UNK N   1      39.211  38.807  52.680  1.00  0.00     0.187 HD
HETATM    4  N   UNK N   1      41.257  39.062  53.024  0.00  0.00    -0.284 N 
HETATM    5  C   UNK N   1      41.990  39.198  54.165  0.00  0.00     0.072 A 
HETATM    6  C   UNK N   1      41.095  39.212  55.240  0.00  0.00     0.019 A 
HETATM    7  C   UNK N   1      41.419  39.459  56.691  0.00  0.00     0.189 C 
HETATM    8  S   UNK N   1      42.897  40.490  56.708  0.00  0.00     0.180 S 
HETATM    9  O   UNK N   1      42.529  41.967  56.498  0.00  0.00    -0.222 OA
HETATM   10  O   UNK N   1      43.562  40.497  58.092  0.00  0.00    -0.222 OA
HETATM   11  C   UNK N   1      44.026  39.965  55.448  0.00  0.00     0.072 A 
HETATM   12  C   UNK N   1      45.406  40.122  55.608  0.00  0.00     0.024 A 
HETATM   13  C   UNK N   1      46.279  39.628  54.640  0.00  0.00     0.002 A 
HETATM   14  C   UNK N   1      45.775  38.962  53.524  0.00  0.00     0.001 A 
HETATM   15  C   UNK N   1      44.395  38.813  53.353  0.00  0.00     0.015 A 
HETATM   16  C   UNK N   1      43.491  39.340  54.300  0.00  0.00     0.014 A 
ENDROOT
BRANCH   4  17
HETATM   17  C   UNK N   1      41.691  39.152  51.620  0.00  0.00     0.137 C 
HETATM   18  C   UNK N   1      40.491  39.464  50.689  0.00  0.00     0.031 C 
HETATM   19  C   UNK N   1      40.736  38.976  49.248  0.00  0.00     0.032 C 
HETATM   20  C   UNK N   1      42.225  39.010  48.912  0.00  0.00     0.272 C 
HETATM   21  N   UNK N   1      42.988  38.072  49.788  0.00  0.00     0.092 N 
HETATM   22  C   UNK N   1      42.414  37.886  51.156  0.00  0.00     0.299 C 
BRANCH  21  23
HETATM   23  C   UNK N   1      44.431  38.408  49.832  0.00  0.00     0.302 C 
BRANCH  23  24
HETATM   24  C   UNK N   1      45.291  37.217  50.285  0.00  0.00     0.303 C 
BRANCH  24  25
HETATM   25  N   UNK N   1      46.564  37.192  49.539  0.00  0.00     0.102 N 
HETATM   26  C   UNK N   1      47.043  38.542  49.217  0.00  0.00     0.353 A 
HETATM   27  C   UNK N   1      48.252  38.409  50.125  0.00  0.00     0.295 A 
HETATM   28  F   UNK N   1      48.189  39.237  51.232  0.00  0.00    -0.203 F 
HETATM   29  F   UNK N   1      49.460  38.435  49.449  0.00  0.00    -0.203 F 
HETATM   30  C   UNK N   1      47.740  37.008  50.403  0.00  0.00     0.353 A 
ENDBRANCH  24  25
ENDBRANCH  23  24
ENDBRANCH  21  23
ENDBRANCH   4  17
BRANCH   1  31
HETATM   31  C   UNK N   1      38.546  38.923  55.426  0.00  0.00     0.272 C 
HETATM   32  O   UNK N   1      37.819  39.909  55.428  0.00  0.00    -0.266 OA
HETATM   33  N   UNK N   1      38.126  37.783  56.082  0.00  0.00    -0.343 N 
HETATM   34  C   UNK N   1      36.807  37.811  56.728  0.00  0.00     0.152 C 
HETATM   35  C   UNK N   1      38.873  36.524  55.953  0.00  0.00     0.152 C 
HETATM   36  C   UNK N   1      36.433  36.502  57.419  0.00  0.00     0.187 C 
HETATM   37  O   UNK N   1      36.823  35.407  56.618  0.00  0.00    -0.388 OA
HETATM   38  C   UNK N   1      38.231  35.340  56.688  0.00  0.00     0.187 C 
ENDBRANCH   1  31
TORSDOF 5
ENDMDL
MODEL 3
REMARK VINA RESULT:      -8.5      2.579      2.996
REMARK  5 active torsions:
REMARK  status: ('A' for Active; 'I' for Inactive)
REMARK    1  A    between atoms: C_2  and  C_3 
REMARK       I    between atoms: C_2  and  N_33 
REMARK    2  A    between atoms: N_6  and  C_7 
REMARK    3  A    between atoms: N_11  and  C_12 
REMARK    4  A    between atoms: C_12  and  C_13 
REMARK    5  A    between atoms: C_13  and  N_14 
ROOT
HETATM    1  C   UNK N   1      40.042  38.893  54.661  0.00  0.00     0.126 A 
HETATM    2  N   UNK N   1      40.110  38.692  53.330  0.00  0.00    -0.292 N 
ATOM      3  HN  UNK N   1      39.314  38.510  52.719  1.00  0.00     0.187 HD
HETATM    4  N   UNK N   1      41.376  38.767  52.941  0.00  0.00    -0.284 N 
HETATM    5  C   UNK N   1      42.166  38.993  54.029  0.00  0.00     0.072 A 
HETATM    6  C   UNK N   1      41.325  39.113  55.141  0.00  0.00     0.019 A 
HETATM    7  C   UNK N   1      41.721  39.482  56.547  0.00  0.00     0.189 C 
HETATM    8  S   UNK N   1      43.207  40.491  56.402  0.00  0.00     0.180 S 
HETATM    9  O   UNK N   1      42.843  41.949  56.080  0.00  0.00    -0.222 OA
HETATM   10  O   UNK N   1      43.940  40.610  57.747  0.00  0.00    -0.222 OA
HETATM   11  C   UNK N   1      44.269  39.842  55.140  0.00  0.00     0.072 A 
HETATM   12  C   UNK N   1      45.656  39.994  55.220  0.00  0.00     0.024 A 
HETATM   13  C   UNK N   1      46.476  39.406  54.258  0.00  0.00     0.002 A 
HETATM   14  C   UNK N   1      45.912  38.652  53.230  0.00  0.00     0.001 A 
HETATM   15  C   UNK N   1      44.524  38.506  53.140  0.00  0.00     0.015 A 
HETATM   16  C   UNK N   1      43.673  39.127  54.079  0.00  0.00     0.014 A 
ENDROOT
BRANCH   4  17
HETATM   17  C   UNK N   1      41.742  38.728  51.516  0.00  0.00     0.137 C 
HETATM   18  C   UNK N   1      41.188  39.969  50.768  0.00  0.00     0.031 C 
HETATM   19  C   UNK N   1      40.996  39.699  49.264  0.00  0.00     0.032 C 
HETATM   20  C   UNK N   1      42.009  38.671  48.765  0.00  0.00     0.272 C 
HETATM   21  N   UNK N   1      41.804  37.354  49.439  0.00  0.00     0.092 N 
HETATM   22  C   UNK N   1      41.274  37.441  50.834  0.00  0.00     0.299 C 
BRANCH  21  23
HETATM   23  C   UNK N   1      43.011  36.497  49.353  0.00  0.00     0.302 C 
BRANCH  23  24
HETATM   24  C   UNK N   1      42.784  35.113  49.983  0.00  0.00     0.303 C 
BRANCH  24  25
HETATM   25  N   UNK N   1      42.302  34.161  48.962  0.00  0.00     0.102 N 
HETATM   26  C   UNK N   1      42.761  34.516  47.613  0.00  0.00     0.353 A 
HETATM   27  C   UNK N   1      43.635  33.281  47.506  0.00  0.00     0.295 A 
HETATM   28  F   UNK N   1      44.987  33.575  47.501  0.00  0.00    -0.203 F 
HETATM   29  F   UNK N   1      43.230  32.398  46.519  0.00  0.00    -0.203 F 
HETATM   30  C   UNK N   1      43.109  32.934  48.886  0.00  0.00     0.353 A 
ENDBRANCH  24  25
ENDBRANCH  23  24
ENDBRANCH  21  23
ENDBRANCH   4  17
BRANCH   1  31
HETATM   31  C   UNK N   1      38.785  38.875  55.473  0.00  0.00     0.272 C 
HETATM   32  O   UNK N   1      38.514  37.840  56.068  0.00  0.00    -0.266 OA
HETATM   33  N   UNK N   1      37.940  39.960  55.601  0.00  0.00    -0.343 N 
HETATM   34  C   UNK N   1      36.768  39.816  56.475  0.00  0.00     0.152 C 
HETATM   35  C   UNK N   1      38.316  41.274  55.059  0.00  0.00     0.152 C 
HETATM   36  C   UNK N   1      35.902  41.070  56.555  0.00  0.00     0.187 C 
HETATM   37  O   UNK N   1      36.723  42.217  56.630  0.00  0.00    -0.388 OA
HETATM   38  C   UNK N   1      37.296  42.383  55.351  0.00  0.00     0.187 C 
ENDBRANCH   1  31
TORSDOF 5
ENDMDL
MODEL 4
REMARK VINA RESULT:      -8.4      2.890      3.809
REMARK  5 active torsions:
REMARK  status: ('A' for Active; 'I' for Inactive)
REMARK    1  A    between atoms: C_2  and  C_3 
REMARK       I    between atoms: C_2  and  N_33 
REMARK    2  A    between atoms: N_6  and  C_7 
REMARK    3  A    between atoms: N_11  and  C_12 
REMARK    4  A    between atoms: C_12  and  C_13 
REMARK    5  A    between atoms: C_13  and  N_14 
ROOT
HETATM    1  C   UNK N   1      38.561  38.003  51.957  0.00  0.00     0.126 A 
HETATM    2  N   UNK N   1      39.488  37.892  50.985  0.00  0.00    -0.292 N 
ATOM      3  HN  UNK N   1      39.321  37.519  50.051  1.00  0.00     0.187 HD
HETATM    4  N   UNK N   1      40.651  38.344  51.436  0.00  0.00    -0.284 N 
HETATM    5  C   UNK N   1      40.506  38.736  52.733  0.00  0.00     0.072 A 
HETATM    6  C   UNK N   1      39.162  38.558  53.078  0.00  0.00     0.019 A 
HETATM    7  C   UNK N   1      38.492  38.959  54.367  0.00  0.00     0.189 C 
HETATM    8  S   UNK N   1      39.431  40.356  55.009  0.00  0.00     0.180 S 
HETATM    9  O   UNK N   1      38.992  41.662  54.329  0.00  0.00    -0.222 OA
HETATM   10  O   UNK N   1      39.112  40.617  56.488  0.00  0.00    -0.222 OA
HETATM   11  C   UNK N   1      41.166  40.098  54.755  0.00  0.00     0.072 A 
HETATM   12  C   UNK N   1      42.109  40.636  55.635  0.00  0.00     0.024 A 
HETATM   13  C   UNK N   1      43.463  40.352  55.462  0.00  0.00     0.002 A 
HETATM   14  C   UNK N   1      43.871  39.517  54.423  0.00  0.00     0.001 A 
HETATM   15  C   UNK N   1      42.932  38.986  53.533  0.00  0.00     0.015 A 
HETATM   16  C   UNK N   1      41.561  39.292  53.665  0.00  0.00     0.014 A 
ENDROOT
BRANCH   4  17
HETATM   17  C   UNK N   1      41.816  38.478  50.546  0.00  0.00     0.137 C 
HETATM   18  C   UNK N   1      41.549  39.532  49.440  0.00  0.00     0.031 C 
HETATM   19  C   UNK N   1      42.410  39.285  48.186  0.00  0.00     0.032 C 
HETATM   20  C   UNK N   1      43.735  38.624  48.561  0.00  0.00     0.272 C 
HETATM   21  N   UNK N   1      43.505  37.277  49.163  0.00  0.00     0.092 N 
HETATM   22  C   UNK N   1      42.224  37.141  49.923  0.00  0.00     0.299 C 
BRANCH  21  23
HETATM   23  C   UNK N   1      44.672  36.819  49.953  0.00  0.00     0.302 C 
BRANCH  23  24
HETATM   24  C   UNK N   1      46.005  37.139  49.257  0.00  0.00     0.303 C 
BRANCH  24  25
HETATM   25  N   UNK N   1      46.651  38.299  49.900  0.00  0.00     0.102 N 
HETATM   26  C   UNK N   1      46.652  38.191  51.365  0.00  0.00     0.353 A 
HETATM   27  C   UNK N   1      48.162  38.060  51.427  0.00  0.00     0.295 A 
HETATM   28  F   UNK N   1      48.578  36.804  51.834  0.00  0.00    -0.203 F 
HETATM   29  F   UNK N   1      48.785  39.115  52.072  0.00  0.00    -0.203 F 
HETATM   30  C   UNK N   1      48.119  38.210  49.918  0.00  0.00     0.353 A 
ENDBRANCH  24  25
ENDBRANCH  23  24
ENDBRANCH  21  23
ENDBRANCH   4  17
BRANCH   1  31
HETATM   31  C   UNK N   1      37.128  37.589  51.836  0.00  0.00     0.272 C 
HETATM   32  O   UNK N   1      36.354  38.384  51.319  0.00  0.00    -0.266 OA
HETATM   33  N   UNK N   1      36.648  36.362  52.250  0.00  0.00    -0.343 N 
HETATM   34  C   UNK N   1      35.226  36.071  52.020  0.00  0.00     0.152 C 
HETATM   35  C   UNK N   1      37.567  35.309  52.704  0.00  0.00     0.152 C 
HETATM   36  C   UNK N   1      34.795  34.690  52.507  0.00  0.00     0.187 C 
HETATM   37  O   UNK N   1      35.789  33.737  52.192  0.00  0.00    -0.388 OA
HETATM   38  C   UNK N   1      36.873  33.987  53.060  0.00  0.00     0.187 C 
ENDBRANCH   1  31
TORSDOF 5
ENDMDL
MODEL 5
REMARK VINA RESULT:      -8.3      1.658      2.062
REMARK  5 active torsions:
REMARK  status: ('A' for Active; 'I' for Inactive)
REMARK    1  A    between atoms: C_2  and  C_3 
REMARK       I    between atoms: C_2  and  N_33 
REMARK    2  A    between atoms: N_6  and  C_7 
REMARK    3  A    between atoms: N_11  and  C_12 
REMARK    4  A    between atoms: C_12  and  C_13 
REMARK    5  A    between atoms: C_13  and  N_14 
ROOT
HETATM    1  C   UNK N   1      39.692  38.776  55.469  0.00  0.00     0.126 A 
HETATM    2  N   UNK N   1      39.665  38.553  54.140  0.00  0.00    -0.292 N 
ATOM      3  HN  UNK N   1      38.835  38.312  53.599  1.00  0.00     0.187 HD
HETATM    4  N   UNK N   1      40.889  38.694  53.649  0.00  0.00    -0.284 N 
HETATM    5  C   UNK N   1      41.748  38.988  54.665  0.00  0.00     0.072 A 
HETATM    6  C   UNK N   1      40.994  39.080  55.839  0.00  0.00     0.019 A 
HETATM    7  C   UNK N   1      41.480  39.500  57.203  0.00  0.00     0.189 C 
HETATM    8  S   UNK N   1      42.886  40.591  56.922  0.00  0.00     0.180 S 
HETATM    9  O   UNK N   1      42.411  42.018  56.609  0.00  0.00    -0.222 OA
HETATM   10  O   UNK N   1      43.716  40.779  58.200  0.00  0.00    -0.222 OA
HETATM   11  C   UNK N   1      43.879  39.980  55.587  0.00  0.00     0.072 A 
HETATM   12  C   UNK N   1      45.257  40.215  55.551  0.00  0.00     0.024 A 
HETATM   13  C   UNK N   1      46.031  39.657  54.534  0.00  0.00     0.002 A 
HETATM   14  C   UNK N   1      45.432  38.850  53.568  0.00  0.00     0.001 A 
HETATM   15  C   UNK N   1      44.052  38.622  53.593  0.00  0.00     0.015 A 
HETATM   16  C   UNK N   1      43.244  39.210  54.590  0.00  0.00     0.014 A 
ENDROOT
BRANCH   4  17
HETATM   17  C   UNK N   1      41.140  38.648  52.199  0.00  0.00     0.137 C 
HETATM   18  C   UNK N   1      41.261  40.079  51.612  0.00  0.00     0.031 C 
HETATM   19  C   UNK N   1      40.911  40.120  50.112  0.00  0.00     0.032 C 
HETATM   20  C   UNK N   1      41.254  38.792  49.440  0.00  0.00     0.272 C 
HETATM   21  N   UNK N   1      40.438  37.680  50.013  0.00  0.00     0.092 N 
HETATM   22  C   UNK N   1      40.067  37.853  51.451  0.00  0.00     0.299 C 
BRANCH  21  23
HETATM   23  C   UNK N   1      41.047  36.356  49.750  0.00  0.00     0.302 C 
BRANCH  23  24
HETATM   24  C   UNK N   1      42.158  36.429  48.688  0.00  0.00     0.303 C 
BRANCH  24  25
HETATM   25  N   UNK N   1      43.455  36.048  49.280  0.00  0.00     0.102 N 
HETATM   26  C   UNK N   1      44.547  36.919  48.827  0.00  0.00     0.353 A 
HETATM   27  C   UNK N   1      44.753  37.503  50.212  0.00  0.00     0.295 A 
HETATM   28  F   UNK N   1      44.393  38.837  50.294  0.00  0.00    -0.203 F 
HETATM   29  F   UNK N   1      45.986  37.200  50.765  0.00  0.00    -0.203 F 
HETATM   30  C   UNK N   1      43.644  36.563  50.644  0.00  0.00     0.353 A 
ENDBRANCH  24  25
ENDBRANCH  23  24
ENDBRANCH  21  23
ENDBRANCH   4  17
BRANCH   1  31
HETATM   31  C   UNK N   1      38.508  38.701  56.382  0.00  0.00     0.272 C 
HETATM   32  O   UNK N   1      38.299  37.635  56.946  0.00  0.00    -0.266 OA
HETATM   33  N   UNK N   1      37.666  39.766  56.633  0.00  0.00    -0.343 N 
HETATM   34  C   UNK N   1      36.572  39.563  57.593  0.00  0.00     0.152 C 
HETATM   35  C   UNK N   1      37.981  41.109  56.126  0.00  0.00     0.152 C 
HETATM   36  C   UNK N   1      35.704  40.799  57.806  0.00  0.00     0.187 C 
HETATM   37  O   UNK N   1      36.515  41.953  57.869  0.00  0.00    -0.388 OA
HETATM   38  C   UNK N   1      36.978  42.188  56.556  0.00  0.00     0.187 C 
ENDBRANCH   1  31
TORSDOF 5
ENDMDL
MODEL 6
REMARK VINA RESULT:      -8.3      5.197      8.498
REMARK  5 active torsions:
REMARK  status: ('A' for Active; 'I' for Inactive)
REMARK    1  A    between atoms: C_2  and  C_3 
REMARK       I    between atoms: C_2  and  N_33 
REMARK    2  A    between atoms: N_6  and  C_7 
REMARK    3  A    between atoms: N_11  and  C_12 
REMARK    4  A    between atoms: C_12  and  C_13 
REMARK    5  A    between atoms: C_13  and  N_14 
ROOT
HETATM    1  C   UNK N   1      39.764  38.670  51.734  0.00  0.00     0.126 A 
HETATM    2  N   UNK N   1      39.352  39.025  52.967  0.00  0.00    -0.292 N 
ATOM      3  HN  UNK N   1      38.380  39.088  53.269  1.00  0.00     0.187 HD
HETATM    4  N   UNK N   1      40.411  39.280  53.725  0.00  0.00    -0.284 N 
HETATM    5  C   UNK N   1      41.542  39.121  52.981  0.00  0.00     0.072 A 
HETATM    6  C   UNK N   1      41.151  38.695  51.708  0.00  0.00     0.019 A 
HETATM    7  C   UNK N   1      42.049  38.273  50.573  0.00  0.00     0.189 C 
HETATM    8  S   UNK N   1      43.559  37.647  51.332  0.00  0.00     0.180 S 
HETATM    9  O   UNK N   1      43.376  36.189  51.780  0.00  0.00    -0.222 OA
HETATM   10  O   UNK N   1      44.703  37.552  50.312  0.00  0.00    -0.222 OA
HETATM   11  C   UNK N   1      44.010  38.653  52.720  0.00  0.00     0.072 A 
HETATM   12  C   UNK N   1      45.349  38.810  53.088  0.00  0.00     0.024 A 
HETATM   13  C   UNK N   1      45.686  39.669  54.133  0.00  0.00     0.002 A 
HETATM   14  C   UNK N   1      44.689  40.384  54.795  0.00  0.00     0.001 A 
HETATM   15  C   UNK N   1      43.347  40.222  54.438  0.00  0.00     0.015 A 
HETATM   16  C   UNK N   1      42.979  39.327  53.410  0.00  0.00     0.014 A 
ENDROOT
BRANCH   4  17
HETATM   17  C   UNK N   1      40.272  39.556  55.164  0.00  0.00     0.137 C 
HETATM   18  C   UNK N   1      40.658  38.312  56.006  0.00  0.00     0.031 C 
HETATM   19  C   UNK N   1      39.978  38.315  57.388  0.00  0.00     0.032 C 
HETATM   20  C   UNK N   1      39.740  39.744  57.870  0.00  0.00     0.272 C 
HETATM   21  N   UNK N   1      38.800  40.463  56.958  0.00  0.00     0.092 N 
HETATM   22  C   UNK N   1      38.863  40.031  55.528  0.00  0.00     0.299 C 
BRANCH  21  23
HETATM   23  C   UNK N   1      38.910  41.934  57.101  0.00  0.00     0.302 C 
BRANCH  23  24
HETATM   24  C   UNK N   1      37.540  42.628  57.021  0.00  0.00     0.303 C 
BRANCH  24  25
HETATM   25  N   UNK N   1      37.705  44.093  57.081  0.00  0.00     0.102 N 
HETATM   26  C   UNK N   1      37.177  44.760  55.884  0.00  0.00     0.353 A 
HETATM   27  C   UNK N   1      36.069  45.443  56.663  0.00  0.00     0.295 A 
HETATM   28  F   UNK N   1      34.810  44.966  56.341  0.00  0.00    -0.203 F 
HETATM   29  F   UNK N   1      36.178  46.823  56.689  0.00  0.00    -0.203 F 
HETATM   30  C   UNK N   1      36.667  44.762  57.880  0.00  0.00     0.353 A 
ENDBRANCH  24  25
ENDBRANCH  23  24
ENDBRANCH  21  23
ENDBRANCH   4  17
BRANCH   1  31
HETATM   31  C   UNK N   1      38.865  38.315  50.592  0.00  0.00     0.272 C 
HETATM   32  O   UNK N   1      38.708  39.156  49.716  0.00  0.00    -0.266 OA
HETATM   33  N   UNK N   1      38.230  37.095  50.467  0.00  0.00    -0.343 N 
HETATM   34  C   UNK N   1      37.416  36.866  49.265  0.00  0.00     0.152 C 
HETATM   35  C   UNK N   1      38.530  35.993  51.392  0.00  0.00     0.152 C 
HETATM   36  C   UNK N   1      36.763  35.487  49.219  0.00  0.00     0.187 C 
HETATM   37  O   UNK N   1      37.673  34.508  49.674  0.00  0.00    -0.388 OA
HETATM   38  C   UNK N   1      37.790  34.688  51.068  0.00  0.00     0.187 C 
ENDBRANCH   1  31
TORSDOF 5
ENDMDL
MODEL 7
REMARK VINA RESULT:      -8.2      4.007      4.834
REMARK  5 active torsions:
REMARK  status: ('A' for Active; 'I' for Inactive)
REMARK    1  A    between atoms: C_2  and  C_3 
REMARK       I    between atoms: C_2  and  N_33 
REMARK    2  A    between atoms: N_6  and  C_7 
REMARK    3  A    between atoms: N_11  and  C_12 
REMARK    4  A    between atoms: C_12  and  C_13 
REMARK    5  A    between atoms: C_13  and  N_14 
ROOT
HETATM    1  C   UNK N   1      38.459  37.881  51.974  0.00  0.00     0.126 A 
HETATM    2  N   UNK N   1      39.345  37.654  50.985  0.00  0.00    -0.292 N 
ATOM      3  HN  UNK N   1      39.131  37.213  50.090  1.00  0.00     0.187 HD
HETATM    4  N   UNK N   1      40.540  38.093  51.360  0.00  0.00    -0.284 N 
HETATM    5  C   UNK N   1      40.456  38.593  52.624  0.00  0.00     0.072 A 
HETATM    6  C   UNK N   1      39.119  38.499  53.025  0.00  0.00     0.019 A 
HETATM    7  C   UNK N   1      38.511  39.031  54.298  0.00  0.00     0.189 C 
HETATM    8  S   UNK N   1      39.525  40.436  54.792  0.00  0.00     0.180 S 
HETATM    9  O   UNK N   1      39.114  41.700  54.021  0.00  0.00    -0.222 OA
HETATM   10  O   UNK N   1      39.269  40.828  56.254  0.00  0.00    -0.222 OA
HETATM   11  C   UNK N   1      41.239  40.086  54.505  0.00  0.00     0.072 A 
HETATM   12  C   UNK N   1      42.232  40.655  55.307  0.00  0.00     0.024 A 
HETATM   13  C   UNK N   1      43.567  40.302  55.115  0.00  0.00     0.002 A 
HETATM   14  C   UNK N   1      43.906  39.370  54.136  0.00  0.00     0.001 A 
HETATM   15  C   UNK N   1      42.917  38.807  53.323  0.00  0.00     0.015 A 
HETATM   16  C   UNK N   1      41.564  39.179  53.473  0.00  0.00     0.014 A 
ENDROOT
BRANCH   4  17
HETATM   17  C   UNK N   1      41.677  38.106  50.425  0.00  0.00     0.137 C 
HETATM   18  C   UNK N   1      41.856  39.509  49.790  0.00  0.00     0.031 C 
HETATM   19  C   UNK N   1      42.570  39.440  48.426  0.00  0.00     0.032 C 
HETATM   20  C   UNK N   1      43.529  38.252  48.377  0.00  0.00     0.272 C 
HETATM   21  N   UNK N   1      42.785  36.964  48.508  0.00  0.00     0.092 N 
HETATM   22  C   UNK N   1      41.542  37.039  49.336  0.00  0.00     0.299 C 
BRANCH  21  23
HETATM   23  C   UNK N   1      43.672  35.856  48.934  0.00  0.00     0.302 C 
BRANCH  23  24
HETATM   24  C   UNK N   1      43.077  34.477  48.604  0.00  0.00     0.303 C 
BRANCH  24  25
HETATM   25  N   UNK N   1      43.496  34.049  47.255  0.00  0.00     0.102 N 
HETATM   26  C   UNK N   1      44.913  33.666  47.211  0.00  0.00     0.353 A 
HETATM   27  C   UNK N   1      44.586  32.211  46.930  0.00  0.00     0.295 A 
HETATM   28  F   UNK N   1      44.908  31.372  47.983  0.00  0.00    -0.203 F 
HETATM   29  F   UNK N   1      45.016  31.775  45.688  0.00  0.00    -0.203 F 
HETATM   30  C   UNK N   1      43.136  32.657  46.950  0.00  0.00     0.353 A 
ENDBRANCH  24  25
ENDBRANCH  23  24
ENDBRANCH  21  23
ENDBRANCH   4  17
BRANCH   1  31
HETATM   31  C   UNK N   1      37.007  37.518  51.932  0.00  0.00     0.272 C 
HETATM   32  O   UNK N   1      36.240  38.322  51.419  0.00  0.00    -0.266 OA
HETATM   33  N   UNK N   1      36.501  36.329  52.417  0.00  0.00    -0.343 N 
HETATM   34  C   UNK N   1      35.061  36.083  52.263  0.00  0.00     0.152 C 
HETATM   35  C   UNK N   1      37.401  35.259  52.873  0.00  0.00     0.152 C 
HETATM   36  C   UNK N   1      34.602  34.740  52.824  0.00  0.00     0.187 C 
HETATM   37  O   UNK N   1      35.545  33.738  52.505  0.00  0.00    -0.388 OA
HETATM   38  C   UNK N   1      36.676  33.980  53.314  0.00  0.00     0.187 C 
ENDBRANCH   1  31
TORSDOF 5
ENDMDL
MODEL 8
REMARK VINA RESULT:      -7.9      3.279      4.291
REMARK  5 active torsions:
REMARK  status: ('A' for Active; 'I' for Inactive)
REMARK    1  A    between atoms: C_2  and  C_3 
REMARK       I    between atoms: C_2  and  N_33 
REMARK    2  A    between atoms: N_6  and  C_7 
REMARK    3  A    between atoms: N_11  and  C_12 
REMARK    4  A    between atoms: C_12  and  C_13 
REMARK    5  A    between atoms: C_13  and  N_14 
ROOT
HETATM    1  C   UNK N   1      42.253  39.452  54.620  0.00  0.00     0.126 A 
HETATM    2  N   UNK N   1      41.560  39.286  53.476  0.00  0.00    -0.292 N 
ATOM      3  HN  UNK N   1      40.552  39.402  53.374  1.00  0.00     0.187 HD
HETATM    4  N   UNK N   1      42.398  38.947  52.504  0.00  0.00    -0.284 N 
HETATM    5  C   UNK N   1      43.659  38.857  53.012  0.00  0.00     0.072 A 
HETATM    6  C   UNK N   1      43.595  39.213  54.363  0.00  0.00     0.019 A 
HETATM    7  C   UNK N   1      44.750  39.379  55.317  0.00  0.00     0.189 C 
HETATM    8  S   UNK N   1      46.172  39.837  54.310  0.00  0.00     0.180 S 
HETATM    9  O   UNK N   1      46.157  41.343  54.005  0.00  0.00    -0.222 OA
HETATM   10  O   UNK N   1      47.488  39.657  55.081  0.00  0.00    -0.222 OA
HETATM   11  C   UNK N   1      46.175  38.915  52.797  0.00  0.00     0.072 A 
HETATM   12  C   UNK N   1      47.374  38.591  52.155  0.00  0.00     0.024 A 
HETATM   13  C   UNK N   1      47.356  37.796  51.010  0.00  0.00     0.002 A 
HETATM   14  C   UNK N   1      46.146  37.310  50.519  0.00  0.00     0.001 A 
HETATM   15  C   UNK N   1      44.943  37.641  51.151  0.00  0.00     0.015 A 
HETATM   16  C   UNK N   1      44.933  38.477  52.288  0.00  0.00     0.014 A 
ENDROOT
BRANCH   4  17
HETATM   17  C   UNK N   1      41.944  38.838  51.108  0.00  0.00     0.137 C 
HETATM   18  C   UNK N   1      40.757  39.798  50.835  0.00  0.00     0.031 C 
HETATM   19  C   UNK N   1      39.880  39.314  49.664  0.00  0.00     0.032 C 
HETATM   20  C   UNK N   1      40.713  38.531  48.652  0.00  0.00     0.272 C 
HETATM   21  N   UNK N   1      41.275  37.294  49.271  0.00  0.00     0.092 N 
HETATM   22  C   UNK N   1      41.568  37.402  50.733  0.00  0.00     0.299 C 
BRANCH  21  23
HETATM   23  C   UNK N   1      42.434  36.773  48.508  0.00  0.00     0.302 C 
BRANCH  23  24
HETATM   24  C   UNK N   1      42.759  35.315  48.871  0.00  0.00     0.303 C 
BRANCH  24  25
HETATM   25  N   UNK N   1      43.021  34.531  47.648  0.00  0.00     0.102 N 
HETATM   26  C   UNK N   1      44.311  33.830  47.705  0.00  0.00     0.353 A 
HETATM   27  C   UNK N   1      43.650  32.464  47.731  0.00  0.00     0.295 A 
HETATM   28  F   UNK N   1      43.809  31.812  48.942  0.00  0.00    -0.203 F 
HETATM   29  F   UNK N   1      43.925  31.693  46.615  0.00  0.00    -0.203 F 
HETATM   30  C   UNK N   1      42.342  33.227  47.637  0.00  0.00     0.353 A 
ENDBRANCH  24  25
ENDBRANCH  23  24
ENDBRANCH  21  23
ENDBRANCH   4  17
BRANCH   1  31
HETATM   31  C   UNK N   1      41.659  39.827  55.942  0.00  0.00     0.272 C 
HETATM   32  O   UNK N   1      41.998  40.899  56.428  0.00  0.00    -0.266 OA
HETATM   33  N   UNK N   1      40.743  39.047  56.620  0.00  0.00    -0.343 N 
HETATM   34  C   UNK N   1      40.204  39.566  57.884  0.00  0.00     0.152 C 
HETATM   35  C   UNK N   1      40.169  37.848  55.994  0.00  0.00     0.152 C 
HETATM   36  C   UNK N   1      39.196  38.634  58.551  0.00  0.00     0.187 C 
HETATM   37  O   UNK N   1      38.341  38.073  57.577  0.00  0.00    -0.388 OA
HETATM   38  C   UNK N   1      39.116  37.138  56.856  0.00  0.00     0.187 C 
ENDBRANCH   1  31
TORSDOF 5
ENDMDL
MODEL 9
REMARK VINA RESULT:      -7.8      5.453      8.705
REMARK  5 active torsions:
REMARK  status: ('A' for Active; 'I' for Inactive)
REMARK    1  A    between atoms: C_2  and  C_3 
REMARK       I    between atoms: C_2  and  N_33 
REMARK    2  A    between atoms: N_6  and  C_7 
REMARK    3  A    between atoms: N_11  and  C_12 
REMARK    4  A    between atoms: C_12  and  C_13 
REMARK    5  A    between atoms: C_13  and  N_14 
ROOT
HETATM    1  C   UNK N   1      37.958  38.366  50.405  0.00  0.00     0.126 A 
HETATM    2  N   UNK N   1      37.435  38.473  51.642  0.00  0.00    -0.292 N 
ATOM      3  HN  UNK N   1      36.444  38.399  51.872  1.00  0.00     0.187 HD
HETATM    4  N   UNK N   1      38.413  38.692  52.512  0.00  0.00    -0.284 N 
HETATM    5  C   UNK N   1      39.599  38.759  51.844  0.00  0.00     0.072 A 
HETATM    6  C   UNK N   1      39.334  38.518  50.492  0.00  0.00     0.019 A 
HETATM    7  C   UNK N   1      40.340  38.372  49.379  0.00  0.00     0.189 C 
HETATM    8  S   UNK N   1      41.854  37.765  50.145  0.00  0.00     0.180 S 
HETATM    9  O   UNK N   1      41.790  36.243  50.340  0.00  0.00    -0.222 OA
HETATM   10  O   UNK N   1      43.064  37.942  49.217  0.00  0.00    -0.222 OA
HETATM   11  C   UNK N   1      42.113  38.562  51.707  0.00  0.00     0.072 A 
HETATM   12  C   UNK N   1      43.404  38.774  52.200  0.00  0.00     0.024 A 
HETATM   13  C   UNK N   1      43.586  39.474  53.392  0.00  0.00     0.002 A 
HETATM   14  C   UNK N   1      42.482  39.978  54.079  0.00  0.00     0.001 A 
HETATM   15  C   UNK N   1      41.188  39.758  53.595  0.00  0.00     0.015 A 
HETATM   16  C   UNK N   1      40.978  39.017  52.412  0.00  0.00     0.014 A 
ENDROOT
BRANCH   4  17
HETATM   17  C   UNK N   1      38.156  38.710  53.961  0.00  0.00     0.137 C 
HETATM   18  C   UNK N   1      37.831  37.287  54.485  0.00  0.00     0.031 C 
HETATM   19  C   UNK N   1      36.987  37.324  55.773  0.00  0.00     0.032 C 
HETATM   20  C   UNK N   1      37.293  38.581  56.585  0.00  0.00     0.272 C 
HETATM   21  N   UNK N   1      36.917  39.809  55.823  0.00  0.00     0.092 N 
HETATM   22  C   UNK N   1      37.039  39.687  54.338  0.00  0.00     0.299 C 
BRANCH  21  23
HETATM   23  C   UNK N   1      37.609  41.013  56.341  0.00  0.00     0.302 C 
BRANCH  23  24
HETATM   24  C   UNK N   1      36.732  42.272  56.246  0.00  0.00     0.303 C 
BRANCH  24  25
HETATM   25  N   UNK N   1      37.541  43.479  56.506  0.00  0.00     0.102 N 
HETATM   26  C   UNK N   1      37.267  44.549  55.539  0.00  0.00     0.353 A 
HETATM   27  C   UNK N   1      36.654  45.448  56.596  0.00  0.00     0.295 A 
HETATM   28  F   UNK N   1      35.292  45.629  56.426  0.00  0.00    -0.203 F 
HETATM   29  F   UNK N   1      37.371  46.611  56.820  0.00  0.00    -0.203 F 
HETATM   30  C   UNK N   1      36.986  44.332  57.568  0.00  0.00     0.353 A 
ENDBRANCH  24  25
ENDBRANCH  23  24
ENDBRANCH  21  23
ENDBRANCH   4  17
BRANCH   1  31
HETATM   31  C   UNK N   1      37.173  38.127  49.153  0.00  0.00     0.272 C 
HETATM   32  O   UNK N   1      37.142  36.984  48.717  0.00  0.00    -0.266 OA
HETATM   33  N   UNK N   1      36.472  39.114  48.488  0.00  0.00    -0.343 N 
HETATM   34  C   UNK N   1      35.701  38.725  47.300  0.00  0.00     0.152 C 
HETATM   35  C   UNK N   1      36.328  40.456  49.071  0.00  0.00     0.152 C 
HETATM   36  C   UNK N   1      34.958  39.885  46.642  0.00  0.00     0.187 C 
HETATM   37  O   UNK N   1      34.390  40.716  47.632  0.00  0.00    -0.388 OA
HETATM   38  C   UNK N   1      35.461  41.408  48.236  0.00  0.00     0.187 C 
ENDBRANCH   1  31
TORSDOF 5
ENDMDL
