MODEL 1
REMARK VINA RESULT:      -8.7      0.000      0.000
REMARK  6 active torsions:
REMARK  status: ('A' for Active; 'I' for Inactive)
REMARK    1  A    between atoms: O_2  and  C_3 
REMARK    2  A    between atoms: C_14  and  C_15 
REMARK       I    between atoms: C_15  and  N_17 
REMARK    3  A    between atoms: N_25  and  C_26 
REMARK    4  A    between atoms: N_30  and  C_31 
REMARK    5  A    between atoms: C_31  and  C_32 
REMARK    6  A    between atoms: C_32  and  N_33 
ROOT
HETATM    1  C   UNK N   1      46.685  38.067  51.133  0.00  0.00     0.069 A 
HETATM    2  C   UNK N   1      46.324  37.464  49.929  0.00  0.00     0.038 A 
HETATM    3  C   UNK N   1      44.980  37.332  49.569  0.00  0.00     0.018 A 
HETATM    4  C   UNK N   1      43.948  37.790  50.420  0.00  0.00     0.015 A 
HETATM    5  C   UNK N   1      44.332  38.455  51.603  0.00  0.00     0.074 A 
HETATM    6  C   UNK N   1      45.678  38.579  51.967  0.00  0.00     0.061 A 
HETATM    7  S   UNK N   1      43.072  39.173  52.613  0.00  0.00     0.180 S 
HETATM    8  O   UNK N   1      42.823  38.260  53.822  0.00  0.00    -0.222 OA
HETATM    9  O   UNK N   1      43.566  40.465  53.281  0.00  0.00    -0.222 OA
HETATM   10  C   UNK N   1      41.527  39.447  51.736  0.00  0.00     0.189 C 
HETATM   11  C   UNK N   1      41.433  38.423  50.634  0.00  0.00     0.019 A 
HETATM   12  C   UNK N   1      40.273  38.000  49.992  0.00  0.00     0.126 A 
HETATM   13  N   UNK N   1      40.592  37.011  49.141  0.00  0.00    -0.292 N 
ATOM     14  HN  UNK N   1      39.934  36.520  48.536  1.00  0.00     0.187 HD
HETATM   15  N   UNK N   1      41.893  36.771  49.208  0.00  0.00    -0.284 N 
HETATM   16  C   UNK N   1      42.471  37.654  50.075  0.00  0.00     0.072 A 
ENDROOT
BRANCH  15  17
HETATM   17  C   UNK N   1      42.465  35.596  48.532  0.00  0.00     0.137 C 
HETATM   18  C   UNK N   1      42.797  34.481  49.561  0.00  0.00     0.031 C 
HETATM   19  C   UNK N   1      42.757  33.077  48.929  0.00  0.00     0.032 C 
HETATM   20  C   UNK N   1      43.179  33.123  47.461  0.00  0.00     0.272 C 
HETATM   21  N   UNK N   1      42.279  34.011  46.660  0.00  0.00     0.092 N 
HETATM   22  C   UNK N   1      41.554  35.053  47.436  0.00  0.00     0.299 C 
BRANCH  21  23
HETATM   23  C   UNK N   1      41.368  33.289  45.754  0.00  0.00     0.302 C 
BRANCH  23  24
HETATM   24  C   UNK N   1      41.156  34.088  44.458  0.00  0.00     0.302 C 
BRANCH  24  25
HETATM   25  N   UNK N   1      40.380  33.325  43.453  0.00  0.00     0.090 N 
HETATM   26  C   UNK N   1      40.984  32.027  43.091  0.00  0.00     0.275 C 
HETATM   27  C   UNK N   1      42.270  32.188  42.248  0.00  0.00     0.067 C 
HETATM   28  C   UNK N   1      42.173  33.365  41.251  0.00  0.00     0.173 C 
HETATM   29  F   UNK N   1      42.899  33.081  40.107  0.00  0.00    -0.249 F 
HETATM   30  C   UNK N   1      40.712  33.667  40.937  0.00  0.00     0.067 C 
HETATM   31  C   UNK N   1      40.038  34.147  42.250  0.00  0.00     0.275 C 
ENDBRANCH  24  25
ENDBRANCH  23  24
ENDBRANCH  21  23
ENDBRANCH  15  17
BRANCH  12  32
HETATM   32  C   UNK N   1      38.862  38.433  50.278  0.00  0.00     0.272 C 
HETATM   33  O   UNK N   1      38.380  39.305  49.571  0.00  0.00    -0.266 OA
HETATM   34  N   UNK N   1      38.115  37.927  51.324  0.00  0.00    -0.343 N 
HETATM   35  C   UNK N   1      36.804  38.481  51.643  0.00  0.00     0.152 C 
HETATM   36  C   UNK N   1      38.559  36.795  52.133  0.00  0.00     0.152 C 
HETATM   37  C   UNK N   1      35.793  37.323  51.715  0.00  0.00     0.187 C 
HETATM   38  O   UNK N   1      36.213  36.199  52.494  0.00  0.00    -0.388 OA
HETATM   39  C   UNK N   1      37.465  36.384  53.139  0.00  0.00     0.187 C 
ENDBRANCH  12  32
BRANCH   1  40
HETATM   40  O   UNK N   1      48.006  38.155  51.446  0.00  0.00    -0.356 OA
HETATM   41  C   UNK N   1      48.686  39.329  51.702  0.00  0.00     0.210 C 
ENDBRANCH   1  40
TORSDOF 6
ENDMDL
MODEL 2
REMARK VINA RESULT:      -8.3      4.702      7.037
REMARK  6 active torsions:
REMARK  status: ('A' for Active; 'I' for Inactive)
REMARK    1  A    between atoms: O_2  and  C_3 
REMARK    2  A    between atoms: C_14  and  C_15 
REMARK       I    between atoms: C_15  and  N_17 
REMARK    3  A    between atoms: N_25  and  C_26 
REMARK    4  A    between atoms: N_30  and  C_31 
REMARK    5  A    between atoms: C_31  and  C_32 
REMARK    6  A    between atoms: C_32  and  N_33 
ROOT
HETATM    1  C   UNK N   1      44.517  39.637  54.789  0.00  0.00     0.069 A 
HETATM    2  C   UNK N   1      43.747  39.391  53.652  0.00  0.00     0.038 A 
HETATM    3  C   UNK N   1      42.354  39.487  53.696  0.00  0.00     0.018 A 
HETATM    4  C   UNK N   1      41.683  39.819  54.896  0.00  0.00     0.015 A 
HETATM    5  C   UNK N   1      42.479  40.127  56.019  0.00  0.00     0.074 A 
HETATM    6  C   UNK N   1      43.874  40.022  55.976  0.00  0.00     0.061 A 
HETATM    7  S   UNK N   1      41.678  40.691  57.490  0.00  0.00     0.180 S 
HETATM    8  O   UNK N   1      41.616  39.536  58.499  0.00  0.00    -0.222 OA
HETATM    9  O   UNK N   1      42.544  41.721  58.231  0.00  0.00    -0.222 OA
HETATM   10  C   UNK N   1      40.023  41.327  57.200  0.00  0.00     0.189 C 
HETATM   11  C   UNK N   1      39.463  40.624  55.989  0.00  0.00     0.019 A 
HETATM   12  C   UNK N   1      38.118  40.492  55.655  0.00  0.00     0.126 A 
HETATM   13  N   UNK N   1      38.025  39.720  54.560  0.00  0.00    -0.292 N 
ATOM     14  HN  UNK N   1      37.154  39.463  54.094  1.00  0.00     0.187 HD
HETATM   15  N   UNK N   1      39.235  39.343  54.178  0.00  0.00    -0.284 N 
HETATM   16  C   UNK N   1      40.166  39.920  54.994  0.00  0.00     0.072 A 
ENDROOT
BRANCH  15  17
HETATM   17  C   UNK N   1      39.398  38.323  53.131  0.00  0.00     0.137 C 
HETATM   18  C   UNK N   1      38.104  37.477  52.985  0.00  0.00     0.031 C 
HETATM   19  C   UNK N   1      37.946  36.893  51.569  0.00  0.00     0.032 C 
HETATM   20  C   UNK N   1      39.309  36.598  50.943  0.00  0.00     0.272 C 
HETATM   21  N   UNK N   1      40.143  37.835  50.838  0.00  0.00     0.092 N 
HETATM   22  C   UNK N   1      39.792  38.926  51.786  0.00  0.00     0.299 C 
BRANCH  21  23
HETATM   23  C   UNK N   1      40.294  38.348  49.464  0.00  0.00     0.302 C 
BRANCH  23  24
HETATM   24  C   UNK N   1      41.595  39.157  49.334  0.00  0.00     0.302 C 
BRANCH  24  25
HETATM   25  N   UNK N   1      42.572  38.499  48.436  0.00  0.00     0.090 N 
HETATM   26  C   UNK N   1      42.792  37.070  48.736  0.00  0.00     0.275 C 
HETATM   27  C   UNK N   1      43.574  36.855  50.052  0.00  0.00     0.067 C 
HETATM   28  C   UNK N   1      44.671  37.924  50.263  0.00  0.00     0.173 C 
HETATM   29  F   UNK N   1      45.745  37.378  50.941  0.00  0.00    -0.249 F 
HETATM   30  C   UNK N   1      45.087  38.519  48.922  0.00  0.00     0.067 C 
HETATM   31  C   UNK N   1      43.857  39.260  48.333  0.00  0.00     0.275 C 
ENDBRANCH  24  25
ENDBRANCH  23  24
ENDBRANCH  21  23
ENDBRANCH  15  17
BRANCH  12  32
HETATM   32  C   UNK N   1      36.931  40.978  56.439  0.00  0.00     0.272 C 
HETATM   33  O   UNK N   1      36.298  40.155  57.082  0.00  0.00    -0.266 OA
HETATM   34  N   UNK N   1      36.504  42.292  56.425  0.00  0.00    -0.343 N 
HETATM   35  C   UNK N   1      35.268  42.684  57.090  0.00  0.00     0.152 C 
HETATM   36  C   UNK N   1      37.274  43.362  55.796  0.00  0.00     0.152 C 
HETATM   37  C   UNK N   1      35.571  43.871  58.021  0.00  0.00     0.187 C 
HETATM   38  O   UNK N   1      36.334  44.927  57.427  0.00  0.00    -0.388 OA
HETATM   39  C   UNK N   1      36.607  44.730  56.047  0.00  0.00     0.187 C 
ENDBRANCH  12  32
BRANCH   1  40
HETATM   40  O   UNK N   1      45.868  39.513  54.698  0.00  0.00    -0.356 OA
HETATM   41  C   UNK N   1      46.549  39.013  53.606  0.00  0.00     0.210 C 
ENDBRANCH   1  40
TORSDOF 6
ENDMDL
MODEL 3
REMARK VINA RESULT:      -8.1      4.372      8.410
REMARK  6 active torsions:
REMARK  status: ('A' for Active; 'I' for Inactive)
REMARK    1  A    between atoms: O_2  and  C_3 
REMARK    2  A    between atoms: C_14  and  C_15 
REMARK       I    between atoms: C_15  and  N_17 
REMARK    3  A    between atoms: N_25  and  C_26 
REMARK    4  A    between atoms: N_30  and  C_31 
REMARK    5  A    between atoms: C_31  and  C_32 
REMARK    6  A    between atoms: C_32  and  N_33 
ROOT
HETATM    1  C   UNK N   1      40.516  39.709  52.343  0.00  0.00     0.069 A 
HETATM    2  C   UNK N   1      39.671  38.632  52.610  0.00  0.00     0.038 A 
HETATM    3  C   UNK N   1      39.634  37.523  51.761  0.00  0.00     0.018 A 
HETATM    4  C   UNK N   1      40.437  37.468  50.598  0.00  0.00     0.015 A 
HETATM    5  C   UNK N   1      41.331  38.535  50.377  0.00  0.00     0.074 A 
HETATM    6  C   UNK N   1      41.362  39.649  51.224  0.00  0.00     0.061 A 
HETATM    7  S   UNK N   1      42.454  38.426  49.017  0.00  0.00     0.180 S 
HETATM    8  O   UNK N   1      41.936  39.305  47.870  0.00  0.00    -0.222 OA
HETATM    9  O   UNK N   1      43.796  39.093  49.353  0.00  0.00    -0.222 OA
HETATM   10  C   UNK N   1      42.696  36.746  48.427  0.00  0.00     0.189 C 
HETATM   11  C   UNK N   1      41.440  35.966  48.725  0.00  0.00     0.019 A 
HETATM   12  C   UNK N   1      41.026  34.793  48.101  0.00  0.00     0.126 A 
HETATM   13  N   UNK N   1      39.814  34.462  48.577  0.00  0.00    -0.292 N 
ATOM     14  HN  UNK N   1      39.275  33.642  48.296  1.00  0.00     0.187 HD
HETATM   15  N   UNK N   1      39.424  35.364  49.465  0.00  0.00    -0.284 N 
HETATM   16  C   UNK N   1      40.418  36.286  49.636  0.00  0.00     0.072 A 
ENDROOT
BRANCH  15  17
HETATM   17  C   UNK N   1      38.047  35.350  49.980  0.00  0.00     0.137 C 
HETATM   18  C   UNK N   1      37.102  34.609  48.995  0.00  0.00     0.031 C 
HETATM   19  C   UNK N   1      35.885  33.992  49.709  0.00  0.00     0.032 C 
HETATM   20  C   UNK N   1      35.472  34.835  50.916  0.00  0.00     0.272 C 
HETATM   21  N   UNK N   1      36.581  34.944  51.913  0.00  0.00     0.092 N 
HETATM   22  C   UNK N   1      37.951  34.735  51.372  0.00  0.00     0.299 C 
BRANCH  21  23
HETATM   23  C   UNK N   1      36.367  34.162  53.144  0.00  0.00     0.302 C 
BRANCH  23  24
HETATM   24  C   UNK N   1      36.906  32.732  52.971  0.00  0.00     0.302 C 
BRANCH  24  25
HETATM   25  N   UNK N   1      36.514  31.849  54.094  0.00  0.00     0.090 N 
HETATM   26  C   UNK N   1      37.319  32.044  55.316  0.00  0.00     0.275 C 
HETATM   27  C   UNK N   1      38.765  31.518  55.162  0.00  0.00     0.067 C 
HETATM   28  C   UNK N   1      38.830  30.221  54.325  0.00  0.00     0.173 C 
HETATM   29  F   UNK N   1      39.867  29.419  54.769  0.00  0.00    -0.249 F 
HETATM   30  C   UNK N   1      37.489  29.497  54.374  0.00  0.00     0.067 C 
HETATM   31  C   UNK N   1      36.437  30.410  53.690  0.00  0.00     0.275 C 
ENDBRANCH  24  25
ENDBRANCH  23  24
ENDBRANCH  21  23
ENDBRANCH  15  17
BRANCH  12  32
HETATM   32  C   UNK N   1      41.708  34.069  46.974  0.00  0.00     0.272 C 
HETATM   33  O   UNK N   1      41.353  34.327  45.834  0.00  0.00    -0.266 OA
HETATM   34  N   UNK N   1      42.674  33.101  47.174  0.00  0.00    -0.343 N 
HETATM   35  C   UNK N   1      43.203  32.331  46.055  0.00  0.00     0.152 C 
HETATM   36  C   UNK N   1      43.252  32.825  48.486  0.00  0.00     0.152 C 
HETATM   37  C   UNK N   1      44.739  32.408  46.095  0.00  0.00     0.187 C 
HETATM   38  O   UNK N   1      45.326  32.152  47.375  0.00  0.00    -0.388 OA
HETATM   39  C   UNK N   1      44.384  31.785  48.374  0.00  0.00     0.187 C 
ENDBRANCH  12  32
BRANCH   1  40
HETATM   40  O   UNK N   1      40.502  40.772  53.192  0.00  0.00    -0.356 OA
HETATM   41  C   UNK N   1      39.813  40.826  54.387  0.00  0.00     0.210 C 
ENDBRANCH   1  40
TORSDOF 6
ENDMDL
MODEL 4
REMARK VINA RESULT:      -8.0      4.031      8.614
REMARK  6 active torsions:
REMARK  status: ('A' for Active; 'I' for Inactive)
REMARK    1  A    between atoms: O_2  and  C_3 
REMARK    2  A    between atoms: C_14  and  C_15 
REMARK       I    between atoms: C_15  and  N_17 
REMARK    3  A    between atoms: N_25  and  C_26 
REMARK    4  A    between atoms: N_30  and  C_31 
REMARK    5  A    between atoms: C_31  and  C_32 
REMARK    6  A    between atoms: C_32  and  N_33 
ROOT
HETATM    1  C   UNK N   1      44.085  39.439  53.600  0.00  0.00     0.069 A 
HETATM    2  C   UNK N   1      42.766  38.998  53.709  0.00  0.00     0.038 A 
HETATM    3  C   UNK N   1      42.184  38.226  52.701  0.00  0.00     0.018 A 
HETATM    4  C   UNK N   1      42.907  37.883  51.535  0.00  0.00     0.015 A 
HETATM    5  C   UNK N   1      44.258  38.281  51.470  0.00  0.00     0.074 A 
HETATM    6  C   UNK N   1      44.838  39.061  52.476  0.00  0.00     0.061 A 
HETATM    7  S   UNK N   1      45.231  37.739  50.098  0.00  0.00     0.180 S 
HETATM    8  O   UNK N   1      45.381  38.899  49.104  0.00  0.00    -0.222 OA
HETATM    9  O   UNK N   1      46.687  37.485  50.518  0.00  0.00    -0.222 OA
HETATM   10  C   UNK N   1      44.541  36.309  49.257  0.00  0.00     0.189 C 
HETATM   11  C   UNK N   1      43.045  36.339  49.445  0.00  0.00     0.019 A 
HETATM   12  C   UNK N   1      42.097  35.696  48.654  0.00  0.00     0.126 A 
HETATM   13  N   UNK N   1      40.874  36.045  49.086  0.00  0.00    -0.292 N 
ATOM     14  HN  UNK N   1      39.994  35.716  48.689  1.00  0.00     0.187 HD
HETATM   15  N   UNK N   1      40.986  36.884  50.105  0.00  0.00    -0.284 N 
HETATM   16  C   UNK N   1      42.307  37.056  50.405  0.00  0.00     0.072 A 
ENDROOT
BRANCH  15  17
HETATM   17  C   UNK N   1      39.799  37.579  50.625  0.00  0.00     0.137 C 
HETATM   18  C   UNK N   1      38.856  37.997  49.464  0.00  0.00     0.031 C 
HETATM   19  C   UNK N   1      37.388  38.105  49.917  0.00  0.00     0.032 C 
HETATM   20  C   UNK N   1      37.295  38.548  51.377  0.00  0.00     0.272 C 
HETATM   21  N   UNK N   1      37.985  37.583  52.288  0.00  0.00     0.092 N 
HETATM   22  C   UNK N   1      39.039  36.747  51.653  0.00  0.00     0.299 C 
BRANCH  21  23
HETATM   23  C   UNK N   1      37.072  36.764  53.105  0.00  0.00     0.302 C 
BRANCH  23  24
HETATM   24  C   UNK N   1      37.851  36.034  54.211  0.00  0.00     0.302 C 
BRANCH  24  25
HETATM   25  N   UNK N   1      37.567  36.591  55.553  0.00  0.00     0.090 N 
HETATM   26  C   UNK N   1      37.520  38.066  55.591  0.00  0.00     0.275 C 
HETATM   27  C   UNK N   1      38.916  38.707  55.416  0.00  0.00     0.067 C 
HETATM   28  C   UNK N   1      40.026  37.895  56.122  0.00  0.00     0.173 C 
HETATM   29  F   UNK N   1      41.020  38.742  56.578  0.00  0.00    -0.249 F 
HETATM   30  C   UNK N   1      39.428  37.060  57.249  0.00  0.00     0.067 C 
HETATM   31  C   UNK N   1      38.465  36.025  56.609  0.00  0.00     0.275 C 
ENDBRANCH  24  25
ENDBRANCH  23  24
ENDBRANCH  21  23
ENDBRANCH  15  17
BRANCH  12  32
HETATM   32  C   UNK N   1      42.345  34.870  47.423  0.00  0.00     0.272 C 
HETATM   33  O   UNK N   1      42.036  35.350  46.343  0.00  0.00    -0.266 OA
HETATM   34  N   UNK N   1      42.857  33.587  47.466  0.00  0.00    -0.343 N 
HETATM   35  C   UNK N   1      42.948  32.778  46.256  0.00  0.00     0.152 C 
HETATM   36  C   UNK N   1      43.376  32.988  48.692  0.00  0.00     0.152 C 
HETATM   37  C   UNK N   1      44.385  32.243  46.136  0.00  0.00     0.187 C 
HETATM   38  O   UNK N   1      44.917  31.661  47.330  0.00  0.00    -0.388 OA
HETATM   39  C   UNK N   1      43.987  31.602  48.403  0.00  0.00     0.187 C 
ENDBRANCH  12  32
BRANCH   1  40
HETATM   40  O   UNK N   1      44.600  40.203  54.601  0.00  0.00    -0.356 OA
HETATM   41  C   UNK N   1      44.238  40.120  55.931  0.00  0.00     0.210 C 
ENDBRANCH   1  40
TORSDOF 6
ENDMDL
MODEL 5
REMARK VINA RESULT:      -8.0      3.580      6.624
REMARK  6 active torsions:
REMARK  status: ('A' for Active; 'I' for Inactive)
REMARK    1  A    between atoms: O_2  and  C_3 
REMARK    2  A    between atoms: C_14  and  C_15 
REMARK       I    between atoms: C_15  and  N_17 
REMARK    3  A    between atoms: N_25  and  C_26 
REMARK    4  A    between atoms: N_30  and  C_31 
REMARK    5  A    between atoms: C_31  and  C_32 
REMARK    6  A    between atoms: C_32  and  N_33 
ROOT
HETATM    1  C   UNK N   1      36.556  34.245  49.793  0.00  0.00     0.069 A 
HETATM    2  C   UNK N   1      37.941  34.290  49.640  0.00  0.00     0.038 A 
HETATM    3  C   UNK N   1      38.701  35.275  50.276  0.00  0.00     0.018 A 
HETATM    4  C   UNK N   1      38.087  36.263  51.080  0.00  0.00     0.015 A 
HETATM    5  C   UNK N   1      36.694  36.165  51.277  0.00  0.00     0.074 A 
HETATM    6  C   UNK N   1      35.933  35.183  50.633  0.00  0.00     0.061 A 
HETATM    7  S   UNK N   1      35.920  37.293  52.396  0.00  0.00     0.180 S 
HETATM    8  O   UNK N   1      35.205  38.385  51.589  0.00  0.00    -0.222 OA
HETATM    9  O   UNK N   1      34.752  36.623  53.137  0.00  0.00    -0.222 OA
HETATM   10  C   UNK N   1      37.069  38.051  53.551  0.00  0.00     0.189 C 
HETATM   11  C   UNK N   1      38.423  38.103  52.889  0.00  0.00     0.019 A 
HETATM   12  C   UNK N   1      39.477  38.948  53.225  0.00  0.00     0.126 A 
HETATM   13  N   UNK N   1      40.473  38.757  52.343  0.00  0.00    -0.292 N 
ATOM     14  HN  UNK N   1      41.370  39.243  52.355  1.00  0.00     0.187 HD
HETATM   15  N   UNK N   1      40.111  37.843  51.456  0.00  0.00    -0.284 N 
HETATM   16  C   UNK N   1      38.874  37.364  51.781  0.00  0.00     0.072 A 
ENDROOT
BRANCH  15  17
HETATM   17  C   UNK N   1      40.936  37.602  50.262  0.00  0.00     0.137 C 
HETATM   18  C   UNK N   1      42.019  38.705  50.114  0.00  0.00     0.031 C 
HETATM   19  C   UNK N   1      43.261  38.203  49.353  0.00  0.00     0.032 C 
HETATM   20  C   UNK N   1      42.878  37.149  48.314  0.00  0.00     0.272 C 
HETATM   21  N   UNK N   1      42.221  35.965  48.950  0.00  0.00     0.092 N 
HETATM   22  C   UNK N   1      41.582  36.221  50.269  0.00  0.00     0.299 C 
BRANCH  21  23
HETATM   23  C   UNK N   1      43.061  34.755  48.989  0.00  0.00     0.302 C 
BRANCH  23  24
HETATM   24  C   UNK N   1      43.537  34.387  47.574  0.00  0.00     0.302 C 
BRANCH  24  25
HETATM   25  N   UNK N   1      43.488  32.926  47.332  0.00  0.00     0.090 N 
HETATM   26  C   UNK N   1      44.657  32.194  47.859  0.00  0.00     0.275 C 
HETATM   27  C   UNK N   1      45.944  32.473  47.049  0.00  0.00     0.067 C 
HETATM   28  C   UNK N   1      45.665  32.610  45.535  0.00  0.00     0.173 C 
HETATM   29  F   UNK N   1      46.747  32.146  44.807  0.00  0.00    -0.249 F 
HETATM   30  C   UNK N   1      44.378  31.879  45.171  0.00  0.00     0.067 C 
HETATM   31  C   UNK N   1      43.209  32.592  45.900  0.00  0.00     0.275 C 
ENDBRANCH  24  25
ENDBRANCH  23  24
ENDBRANCH  21  23
ENDBRANCH  15  17
BRANCH  12  32
HETATM   32  C   UNK N   1      39.490  40.015  54.283  0.00  0.00     0.272 C 
HETATM   33  O   UNK N   1      39.307  41.170  53.929  0.00  0.00    -0.266 OA
HETATM   34  N   UNK N   1      39.745  39.754  55.616  0.00  0.00    -0.343 N 
HETATM   35  C   UNK N   1      39.884  40.841  56.578  0.00  0.00     0.152 C 
HETATM   36  C   UNK N   1      39.841  38.397  56.146  0.00  0.00     0.152 C 
HETATM   37  C   UNK N   1      38.946  40.561  57.765  0.00  0.00     0.187 C 
HETATM   38  O   UNK N   1      39.017  39.233  58.294  0.00  0.00    -0.388 OA
HETATM   39  C   UNK N   1      40.010  38.424  57.679  0.00  0.00     0.187 C 
ENDBRANCH  12  32
BRANCH   1  40
HETATM   40  O   UNK N   1      35.860  33.277  49.139  0.00  0.00    -0.356 OA
HETATM   41  C   UNK N   1      36.305  32.594  48.024  0.00  0.00     0.210 C 
ENDBRANCH   1  40
TORSDOF 6
ENDMDL
MODEL 6
REMARK VINA RESULT:      -8.0      3.411      7.280
REMARK  6 active torsions:
REMARK  status: ('A' for Active; 'I' for Inactive)
REMARK    1  A    between atoms: O_2  and  C_3 
REMARK    2  A    between atoms: C_14  and  C_15 
REMARK       I    between atoms: C_15  and  N_17 
REMARK    3  A    between atoms: N_25  and  C_26 
REMARK    4  A    between atoms: N_30  and  C_31 
REMARK    5  A    between atoms: C_31  and  C_32 
REMARK    6  A    between atoms: C_32  and  N_33 
ROOT
HETATM    1  C   UNK N   1      44.030  39.474  53.497  0.00  0.00     0.069 A 
HETATM    2  C   UNK N   1      42.717  39.029  53.645  0.00  0.00     0.038 A 
HETATM    3  C   UNK N   1      42.114  38.236  52.666  0.00  0.00     0.018 A 
HETATM    4  C   UNK N   1      42.810  37.876  51.489  0.00  0.00     0.015 A 
HETATM    5  C   UNK N   1      44.157  38.280  51.383  0.00  0.00     0.074 A 
HETATM    6  C   UNK N   1      44.757  39.081  52.361  0.00  0.00     0.061 A 
HETATM    7  S   UNK N   1      45.099  37.719  49.997  0.00  0.00     0.180 S 
HETATM    8  O   UNK N   1      45.217  38.862  48.979  0.00  0.00    -0.222 OA
HETATM    9  O   UNK N   1      46.566  37.480  50.386  0.00  0.00    -0.222 OA
HETATM   10  C   UNK N   1      44.397  36.271  49.198  0.00  0.00     0.189 C 
HETATM   11  C   UNK N   1      42.906  36.296  49.423  0.00  0.00     0.019 A 
HETATM   12  C   UNK N   1      41.943  35.634  48.667  0.00  0.00     0.126 A 
HETATM   13  N   UNK N   1      40.728  35.984  49.123  0.00  0.00    -0.292 N 
ATOM     14  HN  UNK N   1      39.841  35.643  48.754  1.00  0.00     0.187 HD
HETATM   15  N   UNK N   1      40.860  36.841  50.124  0.00  0.00    -0.284 N 
HETATM   16  C   UNK N   1      42.188  37.025  50.388  0.00  0.00     0.072 A 
ENDROOT
BRANCH  15  17
HETATM   17  C   UNK N   1      39.683  37.539  50.662  0.00  0.00     0.137 C 
HETATM   18  C   UNK N   1      38.677  37.870  49.526  0.00  0.00     0.031 C 
HETATM   19  C   UNK N   1      37.229  37.972  50.042  0.00  0.00     0.032 C 
HETATM   20  C   UNK N   1      37.194  38.495  51.477  0.00  0.00     0.272 C 
HETATM   21  N   UNK N   1      37.949  37.598  52.406  0.00  0.00     0.092 N 
HETATM   22  C   UNK N   1      38.992  36.750  51.769  0.00  0.00     0.299 C 
BRANCH  21  23
HETATM   23  C   UNK N   1      37.096  36.807  53.310  0.00  0.00     0.302 C 
BRANCH  23  24
HETATM   24  C   UNK N   1      37.618  35.365  53.416  0.00  0.00     0.302 C 
BRANCH  24  25
HETATM   25  N   UNK N   1      36.552  34.367  53.171  0.00  0.00     0.090 N 
HETATM   26  C   UNK N   1      37.010  33.170  52.438  0.00  0.00     0.275 C 
HETATM   27  C   UNK N   1      37.326  33.471  50.954  0.00  0.00     0.067 C 
HETATM   28  C   UNK N   1      36.342  34.493  50.341  0.00  0.00     0.173 C 
HETATM   29  F   UNK N   1      36.152  34.223  48.998  0.00  0.00    -0.249 F 
HETATM   30  C   UNK N   1      35.029  34.485  51.116  0.00  0.00     0.067 C 
HETATM   31  C   UNK N   1      35.329  34.974  52.557  0.00  0.00     0.275 C 
ENDBRANCH  24  25
ENDBRANCH  23  24
ENDBRANCH  21  23
ENDBRANCH  15  17
BRANCH  12  32
HETATM   32  C   UNK N   1      42.164  34.788  47.445  0.00  0.00     0.272 C 
HETATM   33  O   UNK N   1      41.778  35.225  46.371  0.00  0.00    -0.266 OA
HETATM   34  N   UNK N   1      42.737  33.531  47.491  0.00  0.00    -0.343 N 
HETATM   35  C   UNK N   1      42.803  32.695  46.298  0.00  0.00     0.152 C 
HETATM   36  C   UNK N   1      43.345  32.988  48.702  0.00  0.00     0.152 C 
HETATM   37  C   UNK N   1      44.255  32.222  46.116  0.00  0.00     0.187 C 
HETATM   38  O   UNK N   1      44.874  31.696  47.294  0.00  0.00    -0.388 OA
HETATM   39  C   UNK N   1      44.004  31.624  48.415  0.00  0.00     0.187 C 
ENDBRANCH  12  32
BRANCH   1  40
HETATM   40  O   UNK N   1      44.565  40.258  54.471  0.00  0.00    -0.356 OA
HETATM   41  C   UNK N   1      45.909  40.343  54.774  0.00  0.00     0.210 C 
ENDBRANCH   1  40
TORSDOF 6
ENDMDL
MODEL 7
REMARK VINA RESULT:      -7.9      4.444      8.998
REMARK  6 active torsions:
REMARK  status: ('A' for Active; 'I' for Inactive)
REMARK    1  A    between atoms: O_2  and  C_3 
REMARK    2  A    between atoms: C_14  and  C_15 
REMARK       I    between atoms: C_15  and  N_17 
REMARK    3  A    between atoms: N_25  and  C_26 
REMARK    4  A    between atoms: N_30  and  C_31 
REMARK    5  A    between atoms: C_31  and  C_32 
REMARK    6  A    between atoms: C_32  and  N_33 
ROOT
HETATM    1  C   UNK N   1      40.501  39.699  52.296  0.00  0.00     0.069 A 
HETATM    2  C   UNK N   1      39.670  38.612  52.567  0.00  0.00     0.038 A 
HETATM    3  C   UNK N   1      39.645  37.501  51.721  0.00  0.00     0.018 A 
HETATM    4  C   UNK N   1      40.447  37.452  50.557  0.00  0.00     0.015 A 
HETATM    5  C   UNK N   1      41.328  38.530  50.332  0.00  0.00     0.074 A 
HETATM    6  C   UNK N   1      41.346  39.646  51.175  0.00  0.00     0.061 A 
HETATM    7  S   UNK N   1      42.450  38.429  48.971  0.00  0.00     0.180 S 
HETATM    8  O   UNK N   1      41.919  39.299  47.822  0.00  0.00    -0.222 OA
HETATM    9  O   UNK N   1      43.785  39.114  49.302  0.00  0.00    -0.222 OA
HETATM   10  C   UNK N   1      42.711  36.751  48.385  0.00  0.00     0.189 C 
HETATM   11  C   UNK N   1      41.465  35.957  48.687  0.00  0.00     0.019 A 
HETATM   12  C   UNK N   1      41.065  34.777  48.067  0.00  0.00     0.126 A 
HETATM   13  N   UNK N   1      39.857  34.433  48.546  0.00  0.00    -0.292 N 
ATOM     14  HN  UNK N   1      39.328  33.606  48.268  1.00  0.00     0.187 HD
HETATM   15  N   UNK N   1      39.458  35.333  49.431  0.00  0.00    -0.284 N 
HETATM   16  C   UNK N   1      40.440  36.267  49.599  0.00  0.00     0.072 A 
ENDROOT
BRANCH  15  17
HETATM   17  C   UNK N   1      38.081  35.304  49.948  0.00  0.00     0.137 C 
HETATM   18  C   UNK N   1      37.140  34.566  48.958  0.00  0.00     0.031 C 
HETATM   19  C   UNK N   1      35.929  33.933  49.667  0.00  0.00     0.032 C 
HETATM   20  C   UNK N   1      35.512  34.760  50.883  0.00  0.00     0.272 C 
HETATM   21  N   UNK N   1      36.622  34.867  51.880  0.00  0.00     0.092 N 
HETATM   22  C   UNK N   1      37.992  34.673  51.335  0.00  0.00     0.299 C 
BRANCH  21  23
HETATM   23  C   UNK N   1      36.416  34.070  53.103  0.00  0.00     0.302 C 
BRANCH  23  24
HETATM   24  C   UNK N   1      37.386  34.521  54.207  0.00  0.00     0.302 C 
BRANCH  24  25
HETATM   25  N   UNK N   1      36.717  35.358  55.229  0.00  0.00     0.090 N 
HETATM   26  C   UNK N   1      37.114  36.780  55.191  0.00  0.00     0.275 C 
HETATM   27  C   UNK N   1      38.562  37.003  55.687  0.00  0.00     0.067 C 
HETATM   28  C   UNK N   1      38.927  36.071  56.865  0.00  0.00     0.173 C 
HETATM   29  F   UNK N   1      39.818  36.703  57.714  0.00  0.00    -0.249 F 
HETATM   30  C   UNK N   1      37.663  35.627  57.594  0.00  0.00     0.067 C 
HETATM   31  C   UNK N   1      36.823  34.777  56.604  0.00  0.00     0.275 C 
ENDBRANCH  24  25
ENDBRANCH  23  24
ENDBRANCH  21  23
ENDBRANCH  15  17
BRANCH  12  32
HETATM   32  C   UNK N   1      41.753  34.058  46.942  0.00  0.00     0.272 C 
HETATM   33  O   UNK N   1      41.403  34.318  45.800  0.00  0.00    -0.266 OA
HETATM   34  N   UNK N   1      42.721  33.092  47.143  0.00  0.00    -0.343 N 
HETATM   35  C   UNK N   1      43.258  32.326  46.024  0.00  0.00     0.152 C 
HETATM   36  C   UNK N   1      43.294  32.815  48.457  0.00  0.00     0.152 C 
HETATM   37  C   UNK N   1      44.793  32.408  46.072  0.00  0.00     0.187 C 
HETATM   38  O   UNK N   1      45.375  32.150  47.354  0.00  0.00    -0.388 OA
HETATM   39  C   UNK N   1      44.430  31.778  48.347  0.00  0.00     0.187 C 
ENDBRANCH  12  32
BRANCH   1  40
HETATM   40  O   UNK N   1      40.475  40.764  53.141  0.00  0.00    -0.356 OA
HETATM   41  C   UNK N   1      39.942  40.756  54.414  0.00  0.00     0.210 C 
ENDBRANCH   1  40
TORSDOF 6
ENDMDL
MODEL 8
REMARK VINA RESULT:      -7.9      4.565      8.397
REMARK  6 active torsions:
REMARK  status: ('A' for Active; 'I' for Inactive)
REMARK    1  A    between atoms: O_2  and  C_3 
REMARK    2  A    between atoms: C_14  and  C_15 
REMARK       I    between atoms: C_15  and  N_17 
REMARK    3  A    between atoms: N_25  and  C_26 
REMARK    4  A    between atoms: N_30  and  C_31 
REMARK    5  A    between atoms: C_31  and  C_32 
REMARK    6  A    between atoms: C_32  and  N_33 
ROOT
HETATM    1  C   UNK N   1      40.642  39.491  52.037  0.00  0.00     0.069 A 
HETATM    2  C   UNK N   1      39.700  38.477  52.209  0.00  0.00     0.038 A 
HETATM    3  C   UNK N   1      39.796  37.281  51.492  0.00  0.00     0.018 A 
HETATM    4  C   UNK N   1      40.839  37.071  50.561  0.00  0.00     0.015 A 
HETATM    5  C   UNK N   1      41.819  38.078  50.447  0.00  0.00     0.074 A 
HETATM    6  C   UNK N   1      41.718  39.279  51.159  0.00  0.00     0.061 A 
HETATM    7  S   UNK N   1      43.216  37.781  49.407  0.00  0.00     0.180 S 
HETATM    8  O   UNK N   1      43.025  38.541  48.086  0.00  0.00    -0.222 OA
HETATM    9  O   UNK N   1      44.481  38.440  49.977  0.00  0.00    -0.222 OA
HETATM   10  C   UNK N   1      43.491  36.039  49.065  0.00  0.00     0.189 C 
HETATM   11  C   UNK N   1      42.159  35.337  49.139  0.00  0.00     0.019 A 
HETATM   12  C   UNK N   1      41.833  34.114  48.559  0.00  0.00     0.126 A 
HETATM   13  N   UNK N   1      40.528  33.877  48.769  0.00  0.00    -0.292 N 
ATOM     14  HN  UNK N   1      40.023  33.048  48.456  1.00  0.00     0.187 HD
HETATM   15  N   UNK N   1      39.997  34.885  49.444  0.00  0.00    -0.284 N 
HETATM   16  C   UNK N   1      40.975  35.789  49.748  0.00  0.00     0.072 A 
ENDROOT
BRANCH  15  17
HETATM   17  C   UNK N   1      38.539  34.972  49.621  0.00  0.00     0.137 C 
HETATM   18  C   UNK N   1      37.803  34.454  48.356  0.00  0.00     0.031 C 
HETATM   19  C   UNK N   1      36.401  33.906  48.683  0.00  0.00     0.032 C 
HETATM   20  C   UNK N   1      35.780  34.654  49.862  0.00  0.00     0.272 C 
HETATM   21  N   UNK N   1      36.619  34.528  51.094  0.00  0.00     0.092 N 
HETATM   22  C   UNK N   1      38.057  34.225  50.860  0.00  0.00     0.299 C 
BRANCH  21  23
HETATM   23  C   UNK N   1      36.048  33.647  52.127  0.00  0.00     0.302 C 
BRANCH  23  24
HETATM   24  C   UNK N   1      37.154  32.812  52.792  0.00  0.00     0.302 C 
BRANCH  24  25
HETATM   25  N   UNK N   1      36.644  32.018  53.934  0.00  0.00     0.090 N 
HETATM   26  C   UNK N   1      37.419  32.194  55.178  0.00  0.00     0.275 C 
HETATM   27  C   UNK N   1      38.816  31.535  55.103  0.00  0.00     0.067 C 
HETATM   28  C   UNK N   1      38.792  30.201  54.323  0.00  0.00     0.173 C 
HETATM   29  F   UNK N   1      39.734  29.329  54.840  0.00  0.00    -0.249 F 
HETATM   30  C   UNK N   1      37.390  29.603  54.348  0.00  0.00     0.067 C 
HETATM   31  C   UNK N   1      36.450  30.575  53.586  0.00  0.00     0.275 C 
ENDBRANCH  24  25
ENDBRANCH  23  24
ENDBRANCH  21  23
ENDBRANCH  15  17
BRANCH  12  32
HETATM   32  C   UNK N   1      42.713  33.247  47.703  0.00  0.00     0.272 C 
HETATM   33  O   UNK N   1      43.310  32.329  48.247  0.00  0.00    -0.266 OA
HETATM   34  N   UNK N   1      42.909  33.470  46.354  0.00  0.00    -0.343 N 
HETATM   35  C   UNK N   1      43.880  32.685  45.599  0.00  0.00     0.152 C 
HETATM   36  C   UNK N   1      42.139  34.453  45.599  0.00  0.00     0.152 C 
HETATM   37  C   UNK N   1      43.180  32.115  44.353  0.00  0.00     0.187 C 
HETATM   38  O   UNK N   1      42.410  33.061  43.605  0.00  0.00    -0.388 OA
HETATM   39  C   UNK N   1      42.495  34.389  44.100  0.00  0.00     0.187 C 
ENDBRANCH  12  32
BRANCH   1  40
HETATM   40  O   UNK N   1      40.494  40.642  52.746  0.00  0.00    -0.356 OA
HETATM   41  C   UNK N   1      40.219  40.715  54.096  0.00  0.00     0.210 C 
ENDBRANCH   1  40
TORSDOF 6
ENDMDL
MODEL 9
REMARK VINA RESULT:      -7.8      5.067      8.678
REMARK  6 active torsions:
REMARK  status: ('A' for Active; 'I' for Inactive)
REMARK    1  A    between atoms: O_2  and  C_3 
REMARK    2  A    between atoms: C_14  and  C_15 
REMARK       I    between atoms: C_15  and  N_17 
REMARK    3  A    between atoms: N_25  and  C_26 
REMARK    4  A    between atoms: N_30  and  C_31 
REMARK    5  A    between atoms: C_31  and  C_32 
REMARK    6  A    between atoms: C_32  and  N_33 
ROOT
HETATM    1  C   UNK N   1      36.696  34.553  49.420  0.00  0.00     0.069 A 
HETATM    2  C   UNK N   1      38.090  34.549  49.385  0.00  0.00     0.038 A 
HETATM    3  C   UNK N   1      38.828  35.492  50.106  0.00  0.00     0.018 A 
HETATM    4  C   UNK N   1      38.183  36.485  50.879  0.00  0.00     0.015 A 
HETATM    5  C   UNK N   1      36.776  36.435  50.956  0.00  0.00     0.074 A 
HETATM    6  C   UNK N   1      36.038  35.496  50.226  0.00  0.00     0.061 A 
HETATM    7  S   UNK N   1      35.951  37.568  52.032  0.00  0.00     0.180 S 
HETATM    8  O   UNK N   1      35.347  38.703  51.193  0.00  0.00    -0.222 OA
HETATM    9  O   UNK N   1      34.700  36.928  52.655  0.00  0.00    -0.222 OA
HETATM   10  C   UNK N   1      37.023  38.258  53.297  0.00  0.00     0.189 C 
HETATM   11  C   UNK N   1      38.430  38.273  52.753  0.00  0.00     0.019 A 
HETATM   12  C   UNK N   1      39.481  39.071  53.196  0.00  0.00     0.126 A 
HETATM   13  N   UNK N   1      40.540  38.861  52.398  0.00  0.00    -0.292 N 
ATOM     14  HN  UNK N   1      41.450  39.313  52.497  1.00  0.00     0.187 HD
HETATM   15  N   UNK N   1      40.224  37.980  51.462  0.00  0.00    -0.284 N 
HETATM   16  C   UNK N   1      38.946  37.541  51.669  0.00  0.00     0.072 A 
ENDROOT
BRANCH  15  17
HETATM   17  C   UNK N   1      41.138  37.733  50.336  0.00  0.00     0.137 C 
HETATM   18  C   UNK N   1      40.974  38.828  49.248  0.00  0.00     0.031 C 
HETATM   19  C   UNK N   1      42.261  39.027  48.425  0.00  0.00     0.032 C 
HETATM   20  C   UNK N   1      43.038  37.718  48.297  0.00  0.00     0.272 C 
HETATM   21  N   UNK N   1      43.431  37.180  49.637  0.00  0.00     0.092 N 
HETATM   22  C   UNK N   1      42.594  37.637  50.779  0.00  0.00     0.299 C 
BRANCH  21  23
HETATM   23  C   UNK N   1      44.867  37.305  49.942  0.00  0.00     0.302 C 
BRANCH  23  24
HETATM   24  C   UNK N   1      45.106  38.451  50.939  0.00  0.00     0.302 C 
BRANCH  24  25
HETATM   25  N   UNK N   1      45.591  37.958  52.248  0.00  0.00     0.090 N 
HETATM   26  C   UNK N   1      44.567  37.976  53.312  0.00  0.00     0.275 C 
HETATM   27  C   UNK N   1      44.217  39.411  53.771  0.00  0.00     0.067 C 
HETATM   28  C   UNK N   1      45.456  40.335  53.797  0.00  0.00     0.173 C 
HETATM   29  F   UNK N   1      45.330  41.271  54.808  0.00  0.00    -0.249 F 
HETATM   30  C   UNK N   1      46.727  39.505  53.944  0.00  0.00     0.067 C 
HETATM   31  C   UNK N   1      46.862  38.623  52.675  0.00  0.00     0.275 C 
ENDBRANCH  24  25
ENDBRANCH  23  24
ENDBRANCH  21  23
ENDBRANCH  15  17
BRANCH  12  32
HETATM   32  C   UNK N   1      39.442  40.115  54.276  0.00  0.00     0.272 C 
HETATM   33  O   UNK N   1      39.214  41.269  53.945  0.00  0.00    -0.266 OA
HETATM   34  N   UNK N   1      39.696  39.835  55.606  0.00  0.00    -0.343 N 
HETATM   35  C   UNK N   1      39.783  40.906  56.592  0.00  0.00     0.152 C 
HETATM   36  C   UNK N   1      39.843  38.473  56.109  0.00  0.00     0.152 C 
HETATM   37  C   UNK N   1      38.848  40.564  57.764  0.00  0.00     0.187 C 
HETATM   38  O   UNK N   1      38.968  39.229  58.266  0.00  0.00    -0.388 OA
HETATM   39  C   UNK N   1      39.998  38.473  57.643  0.00  0.00     0.187 C 
ENDBRANCH  12  32
BRANCH   1  40
HETATM   40  O   UNK N   1      36.025  33.625  48.686  0.00  0.00    -0.356 OA
HETATM   41  C   UNK N   1      36.547  32.928  47.615  0.00  0.00     0.210 C 
ENDBRANCH   1  40
TORSDOF 6
ENDMDL
