MODEL 1
REMARK VINA RESULT:      -8.4      0.000      0.000
REMARK  6 active torsions:
REMARK  status: ('A' for Active; 'I' for Inactive)
REMARK    1  A    between atoms: O_2  and  C_3 
REMARK    2  A    between atoms: N_5  and  C_6 
REMARK    3  A    between atoms: C_6  and  C_7 
REMARK    4  A    between atoms: C_7  and  N_8 
REMARK    5  A    between atoms: C_12  and  N_13 
REMARK    6  A    between atoms: C_16  and  C_17 
REMARK       I    between atoms: C_17  and  N_19 
ROOT
HETATM    1  N   UNK N   1      42.145  36.738  49.199  0.00  0.00    -0.284 N 
HETATM    2  N   UNK N   1      40.836  36.904  49.043  0.00  0.00    -0.292 N 
ATOM      3  HN  UNK N   1      40.230  36.311  48.475  1.00  0.00     0.187 HD
HETATM    4  C   UNK N   1      40.435  37.978  49.753  0.00  0.00     0.126 A 
HETATM    5  C   UNK N   1      41.540  38.530  50.384  0.00  0.00     0.019 A 
HETATM    6  C   UNK N   1      42.626  37.723  50.021  0.00  0.00     0.072 A 
HETATM    7  C   UNK N   1      44.035  37.892  50.579  0.00  0.00     0.014 A 
HETATM    8  C   UNK N   1      45.195  37.390  49.945  0.00  0.00     0.015 A 
HETATM    9  C   UNK N   1      46.457  37.552  50.526  0.00  0.00     0.001 A 
HETATM   10  C   UNK N   1      46.595  38.213  51.745  0.00  0.00     0.002 A 
HETATM   11  C   UNK N   1      45.473  38.734  52.382  0.00  0.00     0.024 A 
HETATM   12  C   UNK N   1      44.209  38.585  51.804  0.00  0.00     0.072 A 
HETATM   13  S   UNK N   1      42.783  39.280  52.589  0.00  0.00     0.180 S 
HETATM   14  O   UNK N   1      43.149  40.509  53.434  0.00  0.00    -0.222 OA
HETATM   15  O   UNK N   1      42.212  38.300  53.626  0.00  0.00    -0.222 OA
HETATM   16  C   UNK N   1      41.558  39.687  51.351  0.00  0.00     0.189 C 
ENDROOT
BRANCH   1  17
HETATM   17  C   UNK N   1      42.848  35.555  48.664  0.00  0.00     0.137 C 
HETATM   18  C   UNK N   1      42.499  34.331  49.537  0.00  0.00     0.031 C 
HETATM   19  C   UNK N   1      43.193  33.078  49.016  0.00  0.00     0.032 C 
HETATM   20  C   UNK N   1      42.832  32.855  47.549  0.00  0.00     0.272 C 
HETATM   21  N   UNK N   1      43.235  34.034  46.755  0.00  0.00     0.092 N 
HETATM   22  C   UNK N   1      42.476  35.232  47.193  0.00  0.00     0.299 C 
BRANCH  21  23
HETATM   23  C   UNK N   1      43.142  33.741  45.309  0.00  0.00     0.302 C 
BRANCH  23  24
HETATM   24  C   UNK N   1      41.940  34.478  44.667  0.00  0.00     0.302 C 
BRANCH  24  25
HETATM   25  N   UNK N   1      42.120  34.981  43.281  0.00  0.00     0.095 N 
HETATM   26  C   UNK N   1      41.808  33.988  42.245  0.00  0.00     0.306 A 
HETATM   27  C   UNK N   1      40.620  34.790  41.724  0.00  0.00     0.177 A 
HETATM   28  C   UNK N   1      41.070  35.847  42.730  0.00  0.00     0.306 A 
BRANCH  27  29
HETATM   29  O   UNK N   1      40.775  35.236  40.394  0.00  0.00    -0.387 OA
HETATM   30  C   UNK N   1      39.624  34.897  39.655  0.00  0.00     0.202 C 
ENDBRANCH  27  29
ENDBRANCH  24  25
ENDBRANCH  23  24
ENDBRANCH  21  23
ENDBRANCH   1  17
BRANCH   4  31
HETATM   31  C   UNK N   1      39.022  38.463  49.884  0.00  0.00     0.272 C 
HETATM   32  O   UNK N   1      38.703  39.454  49.242  0.00  0.00    -0.266 OA
HETATM   33  N   UNK N   1      38.091  37.891  50.725  0.00  0.00    -0.343 N 
HETATM   34  C   UNK N   1      38.452  36.772  51.604  0.00  0.00     0.152 C 
HETATM   35  C   UNK N   1      36.806  38.587  50.886  0.00  0.00     0.152 C 
HETATM   36  C   UNK N   1      37.289  36.279  52.472  0.00  0.00     0.187 C 
HETATM   37  O   UNK N   1      36.527  37.367  52.949  0.00  0.00    -0.388 OA
HETATM   38  C   UNK N   1      35.834  37.890  51.836  0.00  0.00     0.187 C 
ENDBRANCH   4  31
TORSDOF 6
ENDMDL
MODEL 2
REMARK VINA RESULT:      -7.9      3.718      6.698
REMARK  6 active torsions:
REMARK  status: ('A' for Active; 'I' for Inactive)
REMARK    1  A    between atoms: O_2  and  C_3 
REMARK    2  A    between atoms: N_5  and  C_6 
REMARK    3  A    between atoms: C_6  and  C_7 
REMARK    4  A    between atoms: C_7  and  N_8 
REMARK    5  A    between atoms: C_12  and  N_13 
REMARK    6  A    between atoms: C_16  and  C_17 
REMARK       I    between atoms: C_17  and  N_19 
ROOT
HETATM    1  N   UNK N   1      38.691  37.179  51.153  0.00  0.00    -0.284 N 
HETATM    2  N   UNK N   1      38.952  36.406  52.202  0.00  0.00    -0.292 N 
ATOM      3  HN  UNK N   1      39.843  35.943  52.385  1.00  0.00     0.187 HD
HETATM    4  C   UNK N   1      37.857  36.332  52.984  0.00  0.00     0.126 A 
HETATM    5  C   UNK N   1      36.846  37.084  52.405  0.00  0.00     0.019 A 
HETATM    6  C   UNK N   1      37.397  37.622  51.235  0.00  0.00     0.072 A 
HETATM    7  C   UNK N   1      36.671  38.613  50.331  0.00  0.00     0.014 A 
HETATM    8  C   UNK N   1      37.017  38.840  48.979  0.00  0.00     0.015 A 
HETATM    9  C   UNK N   1      36.331  39.787  48.213  0.00  0.00     0.001 A 
HETATM   10  C   UNK N   1      35.291  40.529  48.770  0.00  0.00     0.002 A 
HETATM   11  C   UNK N   1      34.918  40.314  50.092  0.00  0.00     0.024 A 
HETATM   12  C   UNK N   1      35.591  39.362  50.863  0.00  0.00     0.072 A 
HETATM   13  S   UNK N   1      35.094  39.055  52.534  0.00  0.00     0.180 S 
HETATM   14  O   UNK N   1      33.604  39.361  52.743  0.00  0.00    -0.222 OA
HETATM   15  O   UNK N   1      35.791  40.039  53.488  0.00  0.00    -0.222 OA
HETATM   16  C   UNK N   1      35.476  37.363  52.969  0.00  0.00     0.189 C 
ENDROOT
BRANCH   1  17
HETATM   17  C   UNK N   1      39.743  37.571  50.194  0.00  0.00     0.137 C 
HETATM   18  C   UNK N   1      40.400  38.879  50.684  0.00  0.00     0.031 C 
HETATM   19  C   UNK N   1      41.505  39.321  49.731  0.00  0.00     0.032 C 
HETATM   20  C   UNK N   1      42.526  38.197  49.562  0.00  0.00     0.272 C 
HETATM   21  N   UNK N   1      41.851  36.989  49.043  0.00  0.00     0.092 N 
HETATM   22  C   UNK N   1      40.851  36.499  50.024  0.00  0.00     0.299 C 
BRANCH  21  23
HETATM   23  C   UNK N   1      42.847  35.980  48.624  0.00  0.00     0.302 C 
BRANCH  23  24
HETATM   24  C   UNK N   1      42.757  34.708  49.502  0.00  0.00     0.302 C 
BRANCH  24  25
HETATM   25  N   UNK N   1      42.487  33.425  48.804  0.00  0.00     0.095 N 
HETATM   26  C   UNK N   1      42.471  33.539  47.340  0.00  0.00     0.306 A 
HETATM   27  C   UNK N   1      43.704  32.656  47.180  0.00  0.00     0.177 A 
HETATM   28  C   UNK N   1      43.594  32.466  48.690  0.00  0.00     0.306 A 
BRANCH  27  29
HETATM   29  O   UNK N   1      43.455  31.454  46.482  0.00  0.00    -0.387 OA
HETATM   30  C   UNK N   1      44.030  31.536  45.199  0.00  0.00     0.202 C 
ENDBRANCH  27  29
ENDBRANCH  24  25
ENDBRANCH  23  24
ENDBRANCH  21  23
ENDBRANCH   1  17
BRANCH   4  31
HETATM   31  C   UNK N   1      37.764  35.604  54.293  0.00  0.00     0.272 C 
HETATM   32  O   UNK N   1      38.067  36.219  55.305  0.00  0.00    -0.266 OA
HETATM   33  N   UNK N   1      37.414  34.275  54.406  0.00  0.00    -0.343 N 
HETATM   34  C   UNK N   1      37.152  33.457  53.215  0.00  0.00     0.152 C 
HETATM   35  C   UNK N   1      37.546  33.651  55.731  0.00  0.00     0.152 C 
HETATM   36  C   UNK N   1      36.789  32.005  53.541  0.00  0.00     0.187 C 
HETATM   37  O   UNK N   1      37.583  31.518  54.602  0.00  0.00    -0.388 OA
HETATM   38  C   UNK N   1      37.142  32.178  55.769  0.00  0.00     0.187 C 
ENDBRANCH   4  31
TORSDOF 6
ENDMDL
MODEL 3
REMARK VINA RESULT:      -7.8      3.709      6.638
REMARK  6 active torsions:
REMARK  status: ('A' for Active; 'I' for Inactive)
REMARK    1  A    between atoms: O_2  and  C_3 
REMARK    2  A    between atoms: N_5  and  C_6 
REMARK    3  A    between atoms: C_6  and  C_7 
REMARK    4  A    between atoms: C_7  and  N_8 
REMARK    5  A    between atoms: C_12  and  N_13 
REMARK    6  A    between atoms: C_16  and  C_17 
REMARK       I    between atoms: C_17  and  N_19 
ROOT
HETATM    1  N   UNK N   1      38.683  37.151  51.131  0.00  0.00    -0.284 N 
HETATM    2  N   UNK N   1      38.939  36.387  52.187  0.00  0.00    -0.292 N 
ATOM      3  HN  UNK N   1      39.824  35.915  52.372  1.00  0.00     0.187 HD
HETATM    4  C   UNK N   1      37.846  36.336  52.975  0.00  0.00     0.126 A 
HETATM    5  C   UNK N   1      36.842  37.095  52.392  0.00  0.00     0.019 A 
HETATM    6  C   UNK N   1      37.395  37.612  51.213  0.00  0.00     0.072 A 
HETATM    7  C   UNK N   1      36.678  38.602  50.301  0.00  0.00     0.014 A 
HETATM    8  C   UNK N   1      37.022  38.809  48.945  0.00  0.00     0.015 A 
HETATM    9  C   UNK N   1      36.344  39.756  48.170  0.00  0.00     0.001 A 
HETATM   10  C   UNK N   1      35.316  40.517  48.723  0.00  0.00     0.002 A 
HETATM   11  C   UNK N   1      34.946  40.322  50.050  0.00  0.00     0.024 A 
HETATM   12  C   UNK N   1      35.610  39.371  50.828  0.00  0.00     0.072 A 
HETATM   13  S   UNK N   1      35.116  39.089  52.505  0.00  0.00     0.180 S 
HETATM   14  O   UNK N   1      33.631  39.416  52.716  0.00  0.00    -0.222 OA
HETATM   15  O   UNK N   1      35.829  40.075  53.445  0.00  0.00    -0.222 OA
HETATM   16  C   UNK N   1      35.478  37.397  52.958  0.00  0.00     0.189 C 
ENDROOT
BRANCH   1  17
HETATM   17  C   UNK N   1      39.736  37.519  50.163  0.00  0.00     0.137 C 
HETATM   18  C   UNK N   1      40.358  38.866  50.592  0.00  0.00     0.031 C 
HETATM   19  C   UNK N   1      41.463  39.284  49.629  0.00  0.00     0.032 C 
HETATM   20  C   UNK N   1      42.510  38.177  49.527  0.00  0.00     0.272 C 
HETATM   21  N   UNK N   1      41.869  36.929  49.064  0.00  0.00     0.092 N 
HETATM   22  C   UNK N   1      40.869  36.466  50.059  0.00  0.00     0.299 C 
BRANCH  21  23
HETATM   23  C   UNK N   1      42.892  35.924  48.705  0.00  0.00     0.302 C 
BRANCH  23  24
HETATM   24  C   UNK N   1      42.645  34.587  49.447  0.00  0.00     0.302 C 
BRANCH  24  25
HETATM   25  N   UNK N   1      42.456  33.376  48.609  0.00  0.00     0.095 N 
HETATM   26  C   UNK N   1      42.412  33.654  47.167  0.00  0.00     0.306 A 
HETATM   27  C   UNK N   1      43.701  32.883  46.902  0.00  0.00     0.177 A 
HETATM   28  C   UNK N   1      43.623  32.515  48.381  0.00  0.00     0.306 A 
BRANCH  27  29
HETATM   29  O   UNK N   1      43.526  31.753  46.073  0.00  0.00    -0.387 OA
HETATM   30  C   UNK N   1      44.355  31.877  44.941  0.00  0.00     0.202 C 
ENDBRANCH  27  29
ENDBRANCH  24  25
ENDBRANCH  23  24
ENDBRANCH  21  23
ENDBRANCH   1  17
BRANCH   4  31
HETATM   31  C   UNK N   1      37.749  35.624  54.292  0.00  0.00     0.272 C 
HETATM   32  O   UNK N   1      37.185  34.539  54.308  0.00  0.00    -0.266 OA
HETATM   33  N   UNK N   1      38.207  36.149  55.483  0.00  0.00    -0.343 N 
HETATM   34  C   UNK N   1      38.788  37.497  55.542  0.00  0.00     0.152 C 
HETATM   35  C   UNK N   1      37.876  35.420  56.716  0.00  0.00     0.152 C 
HETATM   36  C   UNK N   1      39.228  37.910  56.950  0.00  0.00     0.187 C 
HETATM   37  O   UNK N   1      38.292  37.475  57.912  0.00  0.00    -0.388 OA
HETATM   38  C   UNK N   1      38.416  36.071  57.988  0.00  0.00     0.187 C 
ENDBRANCH   4  31
TORSDOF 6
ENDMDL
MODEL 4
REMARK VINA RESULT:      -7.7      5.458     10.922
REMARK  6 active torsions:
REMARK  status: ('A' for Active; 'I' for Inactive)
REMARK    1  A    between atoms: O_2  and  C_3 
REMARK    2  A    between atoms: N_5  and  C_6 
REMARK    3  A    between atoms: C_6  and  C_7 
REMARK    4  A    between atoms: C_7  and  N_8 
REMARK    5  A    between atoms: C_12  and  N_13 
REMARK    6  A    between atoms: C_16  and  C_17 
REMARK       I    between atoms: C_17  and  N_19 
ROOT
HETATM    1  N   UNK N   1      38.994  32.085  43.118  0.00  0.00    -0.284 N 
HETATM    2  N   UNK N   1      39.940  31.661  43.949  0.00  0.00    -0.292 N 
ATOM      3  HN  UNK N   1      39.779  31.109  44.792  1.00  0.00     0.187 HD
HETATM    4  C   UNK N   1      41.143  32.073  43.503  0.00  0.00     0.126 A 
HETATM    5  C   UNK N   1      40.958  32.803  42.338  0.00  0.00     0.019 A 
HETATM    6  C   UNK N   1      39.577  32.799  42.104  0.00  0.00     0.072 A 
HETATM    7  C   UNK N   1      38.923  33.392  40.860  0.00  0.00     0.014 A 
HETATM    8  C   UNK N   1      37.561  33.767  40.793  0.00  0.00     0.015 A 
HETATM    9  C   UNK N   1      37.016  34.277  39.610  0.00  0.00     0.001 A 
HETATM   10  C   UNK N   1      37.806  34.424  38.472  0.00  0.00     0.002 A 
HETATM   11  C   UNK N   1      39.153  34.080  38.515  0.00  0.00     0.024 A 
HETATM   12  C   UNK N   1      39.710  33.579  39.695  0.00  0.00     0.072 A 
HETATM   13  S   UNK N   1      41.433  33.178  39.768  0.00  0.00     0.180 S 
HETATM   14  O   UNK N   1      42.249  34.026  38.782  0.00  0.00    -0.222 OA
HETATM   15  O   UNK N   1      41.669  31.742  39.274  0.00  0.00    -0.222 OA
HETATM   16  C   UNK N   1      42.024  33.385  41.444  0.00  0.00     0.189 C 
ENDROOT
BRANCH   1  17
HETATM   17  C   UNK N   1      37.586  31.663  43.260  0.00  0.00     0.137 C 
HETATM   18  C   UNK N   1      37.511  30.127  43.125  0.00  0.00     0.031 C 
HETATM   19  C   UNK N   1      36.075  29.639  43.277  0.00  0.00     0.032 C 
HETATM   20  C   UNK N   1      35.500  30.125  44.607  0.00  0.00     0.272 C 
HETATM   21  N   UNK N   1      35.550  31.601  44.659  0.00  0.00     0.092 N 
HETATM   22  C   UNK N   1      36.958  32.068  44.620  0.00  0.00     0.299 C 
BRANCH  21  23
HETATM   23  C   UNK N   1      34.766  32.105  45.807  0.00  0.00     0.302 C 
BRANCH  23  24
HETATM   24  C   UNK N   1      34.881  31.152  47.023  0.00  0.00     0.302 C 
BRANCH  24  25
HETATM   25  N   UNK N   1      36.107  31.263  47.852  0.00  0.00     0.095 N 
HETATM   26  C   UNK N   1      36.421  32.637  48.265  0.00  0.00     0.306 A 
HETATM   27  C   UNK N   1      36.194  32.327  49.741  0.00  0.00     0.177 A 
HETATM   28  C   UNK N   1      36.008  30.888  49.268  0.00  0.00     0.306 A 
BRANCH  27  29
HETATM   29  O   UNK N   1      37.352  32.470  50.536  0.00  0.00    -0.387 OA
HETATM   30  C   UNK N   1      37.094  33.394  51.568  0.00  0.00     0.202 C 
ENDBRANCH  27  29
ENDBRANCH  24  25
ENDBRANCH  23  24
ENDBRANCH  21  23
ENDBRANCH   1  17
BRANCH   4  31
HETATM   31  C   UNK N   1      42.467  31.750  44.129  0.00  0.00     0.272 C 
HETATM   32  O   UNK N   1      43.073  30.778  43.701  0.00  0.00    -0.266 OA
HETATM   33  N   UNK N   1      43.003  32.450  45.190  0.00  0.00    -0.343 N 
HETATM   34  C   UNK N   1      42.266  33.553  45.819  0.00  0.00     0.152 C 
HETATM   35  C   UNK N   1      44.216  31.905  45.817  0.00  0.00     0.152 C 
HETATM   36  C   UNK N   1      43.018  34.201  46.986  0.00  0.00     0.187 C 
HETATM   37  O   UNK N   1      43.670  33.221  47.764  0.00  0.00    -0.388 OA
HETATM   38  C   UNK N   1      44.742  32.737  46.985  0.00  0.00     0.187 C 
ENDBRANCH   4  31
TORSDOF 6
ENDMDL
MODEL 5
REMARK VINA RESULT:      -7.6      4.547     10.785
REMARK  6 active torsions:
REMARK  status: ('A' for Active; 'I' for Inactive)
REMARK    1  A    between atoms: O_2  and  C_3 
REMARK    2  A    between atoms: N_5  and  C_6 
REMARK    3  A    between atoms: C_6  and  C_7 
REMARK    4  A    between atoms: C_7  and  N_8 
REMARK    5  A    between atoms: C_12  and  N_13 
REMARK    6  A    between atoms: C_16  and  C_17 
REMARK       I    between atoms: C_17  and  N_19 
ROOT
HETATM    1  N   UNK N   1      39.171  32.978  43.438  0.00  0.00    -0.284 N 
HETATM    2  N   UNK N   1      40.090  32.574  44.309  0.00  0.00    -0.292 N 
ATOM      3  HN  UNK N   1      39.948  32.480  45.315  1.00  0.00     0.187 HD
HETATM    4  C   UNK N   1      41.238  32.308  43.655  0.00  0.00     0.126 A 
HETATM    5  C   UNK N   1      41.048  32.561  42.304  0.00  0.00     0.019 A 
HETATM    6  C   UNK N   1      39.719  32.986  42.182  0.00  0.00     0.072 A 
HETATM    7  C   UNK N   1      39.036  33.269  40.848  0.00  0.00     0.014 A 
HETATM    8  C   UNK N   1      37.879  34.072  40.714  0.00  0.00     0.015 A 
HETATM    9  C   UNK N   1      37.283  34.267  39.464  0.00  0.00     0.001 A 
HETATM   10  C   UNK N   1      37.819  33.671  38.325  0.00  0.00     0.002 A 
HETATM   11  C   UNK N   1      38.966  32.892  38.424  0.00  0.00     0.024 A 
HETATM   12  C   UNK N   1      39.575  32.699  39.667  0.00  0.00     0.072 A 
HETATM   13  S   UNK N   1      41.059  31.742  39.794  0.00  0.00     0.180 S 
HETATM   14  O   UNK N   1      41.871  31.788  38.492  0.00  0.00    -0.222 OA
HETATM   15  O   UNK N   1      40.721  30.250  39.945  0.00  0.00    -0.222 OA
HETATM   16  C   UNK N   1      42.027  32.322  41.182  0.00  0.00     0.189 C 
ENDROOT
BRANCH   1  17
HETATM   17  C   UNK N   1      37.767  33.199  43.835  0.00  0.00     0.137 C 
HETATM   18  C   UNK N   1      36.949  31.934  43.498  0.00  0.00     0.031 C 
HETATM   19  C   UNK N   1      35.489  32.108  43.902  0.00  0.00     0.032 C 
HETATM   20  C   UNK N   1      35.399  32.469  45.383  0.00  0.00     0.272 C 
HETATM   21  N   UNK N   1      36.156  33.713  45.637  0.00  0.00     0.092 N 
HETATM   22  C   UNK N   1      37.596  33.506  45.346  0.00  0.00     0.299 C 
BRANCH  21  23
HETATM   23  C   UNK N   1      35.869  34.225  46.994  0.00  0.00     0.302 C 
BRANCH  23  24
HETATM   24  C   UNK N   1      36.616  33.400  48.071  0.00  0.00     0.302 C 
BRANCH  24  25
HETATM   25  N   UNK N   1      36.881  34.069  49.370  0.00  0.00     0.095 N 
HETATM   26  C   UNK N   1      38.299  34.080  49.752  0.00  0.00     0.306 A 
HETATM   27  C   UNK N   1      38.392  35.599  49.653  0.00  0.00     0.177 A 
HETATM   28  C   UNK N   1      36.890  35.537  49.391  0.00  0.00     0.306 A 
BRANCH  27  29
HETATM   29  O   UNK N   1      38.683  36.232  50.881  0.00  0.00    -0.387 OA
HETATM   30  C   UNK N   1      39.741  37.143  50.693  0.00  0.00     0.202 C 
ENDBRANCH  27  29
ENDBRANCH  24  25
ENDBRANCH  23  24
ENDBRANCH  21  23
ENDBRANCH   1  17
BRANCH   4  31
HETATM   31  C   UNK N   1      42.495  31.773  44.274  0.00  0.00     0.272 C 
HETATM   32  O   UNK N   1      42.955  30.736  43.815  0.00  0.00    -0.266 OA
HETATM   33  N   UNK N   1      43.120  32.350  45.359  0.00  0.00    -0.343 N 
HETATM   34  C   UNK N   1      42.549  33.529  46.022  0.00  0.00     0.152 C 
HETATM   35  C   UNK N   1      44.235  31.612  45.971  0.00  0.00     0.152 C 
HETATM   36  C   UNK N   1      43.378  34.021  47.213  0.00  0.00     0.187 C 
HETATM   37  O   UNK N   1      43.873  32.930  47.960  0.00  0.00    -0.388 OA
HETATM   38  C   UNK N   1      44.868  32.319  47.168  0.00  0.00     0.187 C 
ENDBRANCH   4  31
TORSDOF 6
ENDMDL
MODEL 6
REMARK VINA RESULT:      -7.5      5.226      7.634
REMARK  6 active torsions:
REMARK  status: ('A' for Active; 'I' for Inactive)
REMARK    1  A    between atoms: O_2  and  C_3 
REMARK    2  A    between atoms: N_5  and  C_6 
REMARK    3  A    between atoms: C_6  and  C_7 
REMARK    4  A    between atoms: C_7  and  N_8 
REMARK    5  A    between atoms: C_12  and  N_13 
REMARK    6  A    between atoms: C_16  and  C_17 
REMARK       I    between atoms: C_17  and  N_19 
ROOT
HETATM    1  N   UNK N   1      39.592  39.859  54.598  0.00  0.00    -0.284 N 
HETATM    2  N   UNK N   1      38.360  40.156  54.994  0.00  0.00    -0.292 N 
ATOM      3  HN  UNK N   1      37.504  39.905  54.498  1.00  0.00     0.187 HD
HETATM    4  C   UNK N   1      38.417  40.839  56.155  0.00  0.00     0.126 A 
HETATM    5  C   UNK N   1      39.748  40.995  56.513  0.00  0.00     0.019 A 
HETATM    6  C   UNK N   1      40.487  40.359  55.507  0.00  0.00     0.072 A 
HETATM    7  C   UNK N   1      42.002  40.183  55.547  0.00  0.00     0.014 A 
HETATM    8  C   UNK N   1      42.793  39.934  54.401  0.00  0.00     0.015 A 
HETATM    9  C   UNK N   1      44.175  39.752  54.510  0.00  0.00     0.001 A 
HETATM   10  C   UNK N   1      44.800  39.811  55.754  0.00  0.00     0.002 A 
HETATM   11  C   UNK N   1      44.050  40.072  56.895  0.00  0.00     0.024 A 
HETATM   12  C   UNK N   1      42.669  40.266  56.795  0.00  0.00     0.072 A 
HETATM   13  S   UNK N   1      41.714  40.639  58.239  0.00  0.00     0.180 S 
HETATM   14  O   UNK N   1      42.559  41.357  59.301  0.00  0.00    -0.222 OA
HETATM   15  O   UNK N   1      41.287  39.344  58.946  0.00  0.00    -0.222 OA
HETATM   16  C   UNK N   1      40.289  41.616  57.775  0.00  0.00     0.189 C 
ENDROOT
BRANCH   1  17
HETATM   17  C   UNK N   1      39.847  38.983  53.437  0.00  0.00     0.137 C 
HETATM   18  C   UNK N   1      38.524  38.299  53.030  0.00  0.00     0.031 C 
HETATM   19  C   UNK N   1      38.731  37.390  51.824  0.00  0.00     0.032 C 
HETATM   20  C   UNK N   1      39.339  38.188  50.672  0.00  0.00     0.272 C 
HETATM   21  N   UNK N   1      40.626  38.776  51.101  0.00  0.00     0.092 N 
HETATM   22  C   UNK N   1      40.404  39.743  52.205  0.00  0.00     0.299 C 
BRANCH  21  23
HETATM   23  C   UNK N   1      41.357  39.325  49.939  0.00  0.00     0.302 C 
BRANCH  23  24
HETATM   24  C   UNK N   1      42.557  38.424  49.558  0.00  0.00     0.302 C 
BRANCH  24  25
HETATM   25  N   UNK N   1      43.914  38.946  49.858  0.00  0.00     0.095 N 
HETATM   26  C   UNK N   1      44.615  38.202  50.913  0.00  0.00     0.306 A 
HETATM   27  C   UNK N   1      45.691  37.704  49.953  0.00  0.00     0.177 A 
HETATM   28  C   UNK N   1      44.998  38.599  48.929  0.00  0.00     0.306 A 
BRANCH  27  29
HETATM   29  O   UNK N   1      46.987  38.170  50.262  0.00  0.00    -0.387 OA
HETATM   30  C   UNK N   1      47.855  37.068  50.396  0.00  0.00     0.202 C 
ENDBRANCH  27  29
ENDBRANCH  24  25
ENDBRANCH  23  24
ENDBRANCH  21  23
ENDBRANCH   1  17
BRANCH   4  31
HETATM   31  C   UNK N   1      37.237  41.306  56.956  0.00  0.00     0.272 C 
HETATM   32  O   UNK N   1      36.644  40.473  57.626  0.00  0.00    -0.266 OA
HETATM   33  N   UNK N   1      36.758  42.599  56.931  0.00  0.00    -0.343 N 
HETATM   34  C   UNK N   1      37.360  43.613  56.056  0.00  0.00     0.152 C 
HETATM   35  C   UNK N   1      35.487  42.863  57.621  0.00  0.00     0.152 C 
HETATM   36  C   UNK N   1      36.686  44.985  56.159  0.00  0.00     0.187 C 
HETATM   37  O   UNK N   1      35.285  44.845  56.259  0.00  0.00    -0.388 OA
HETATM   38  C   UNK N   1      35.025  44.317  57.542  0.00  0.00     0.187 C 
ENDBRANCH   4  31
TORSDOF 6
ENDMDL
MODEL 7
REMARK VINA RESULT:      -7.2      4.007     10.094
REMARK  6 active torsions:
REMARK  status: ('A' for Active; 'I' for Inactive)
REMARK    1  A    between atoms: O_2  and  C_3 
REMARK    2  A    between atoms: N_5  and  C_6 
REMARK    3  A    between atoms: C_6  and  C_7 
REMARK    4  A    between atoms: C_7  and  N_8 
REMARK    5  A    between atoms: C_12  and  N_13 
REMARK    6  A    between atoms: C_16  and  C_17 
REMARK       I    between atoms: C_17  and  N_19 
ROOT
HETATM    1  N   UNK N   1      40.554  33.667  45.080  0.00  0.00    -0.284 N 
HETATM    2  N   UNK N   1      41.320  33.904  44.021  0.00  0.00    -0.292 N 
ATOM      3  HN  UNK N   1      42.335  34.008  44.039  1.00  0.00     0.187 HD
HETATM    4  C   UNK N   1      40.546  33.986  42.920  0.00  0.00     0.126 A 
HETATM    5  C   UNK N   1      39.223  33.801  43.294  0.00  0.00     0.019 A 
HETATM    6  C   UNK N   1      39.246  33.596  44.679  0.00  0.00     0.072 A 
HETATM    7  C   UNK N   1      38.015  33.237  45.505  0.00  0.00     0.014 A 
HETATM    8  C   UNK N   1      37.925  33.431  46.903  0.00  0.00     0.015 A 
HETATM    9  C   UNK N   1      36.778  33.051  47.607  0.00  0.00     0.001 A 
HETATM   10  C   UNK N   1      35.699  32.473  46.942  0.00  0.00     0.002 A 
HETATM   11  C   UNK N   1      35.752  32.287  45.565  0.00  0.00     0.024 A 
HETATM   12  C   UNK N   1      36.891  32.672  44.852  0.00  0.00     0.072 A 
HETATM   13  S   UNK N   1      36.948  32.476  43.093  0.00  0.00     0.180 S 
HETATM   14  O   UNK N   1      35.544  32.536  42.474  0.00  0.00    -0.222 OA
HETATM   15  O   UNK N   1      37.433  31.064  42.728  0.00  0.00    -0.222 OA
HETATM   16  C   UNK N   1      38.020  33.723  42.388  0.00  0.00     0.189 C 
ENDROOT
BRANCH   1  17
HETATM   17  C   UNK N   1      41.130  33.377  46.409  0.00  0.00     0.137 C 
HETATM   18  C   UNK N   1      42.605  32.957  46.230  0.00  0.00     0.031 C 
HETATM   19  C   UNK N   1      43.250  32.658  47.579  0.00  0.00     0.032 C 
HETATM   20  C   UNK N   1      43.108  33.867  48.502  0.00  0.00     0.272 C 
HETATM   21  N   UNK N   1      41.676  34.191  48.677  0.00  0.00     0.092 N 
HETATM   22  C   UNK N   1      41.078  34.587  47.378  0.00  0.00     0.299 C 
BRANCH  21  23
HETATM   23  C   UNK N   1      41.498  35.178  49.763  0.00  0.00     0.302 C 
BRANCH  23  24
HETATM   24  C   UNK N   1      41.478  36.623  49.207  0.00  0.00     0.302 C 
BRANCH  24  25
HETATM   25  N   UNK N   1      42.525  37.552  49.702  0.00  0.00     0.095 N 
HETATM   26  C   UNK N   1      43.520  36.911  50.572  0.00  0.00     0.306 A 
HETATM   27  C   UNK N   1      44.653  37.146  49.578  0.00  0.00     0.177 A 
HETATM   28  C   UNK N   1      43.606  37.915  48.777  0.00  0.00     0.306 A 
BRANCH  27  29
HETATM   29  O   UNK N   1      45.668  37.998  50.064  0.00  0.00    -0.387 OA
HETATM   30  C   UNK N   1      46.925  37.422  49.794  0.00  0.00     0.202 C 
ENDBRANCH  27  29
ENDBRANCH  24  25
ENDBRANCH  23  24
ENDBRANCH  21  23
ENDBRANCH   1  17
BRANCH   4  31
HETATM   31  C   UNK N   1      41.038  34.187  41.517  0.00  0.00     0.272 C 
HETATM   32  O   UNK N   1      41.119  35.335  41.106  0.00  0.00    -0.266 OA
HETATM   33  N   UNK N   1      41.345  33.153  40.658  0.00  0.00    -0.343 N 
HETATM   34  C   UNK N   1      41.157  31.753  41.060  0.00  0.00     0.152 C 
HETATM   35  C   UNK N   1      41.636  33.499  39.259  0.00  0.00     0.152 C 
HETATM   36  C   UNK N   1      41.542  30.748  39.970  0.00  0.00     0.187 C 
HETATM   37  O   UNK N   1      41.127  31.206  38.701  0.00  0.00    -0.388 OA
HETATM   38  C   UNK N   1      41.962  32.296  38.375  0.00  0.00     0.187 C 
ENDBRANCH   4  31
TORSDOF 6
ENDMDL
MODEL 8
REMARK VINA RESULT:      -7.1      3.275      5.969
REMARK  6 active torsions:
REMARK  status: ('A' for Active; 'I' for Inactive)
REMARK    1  A    between atoms: O_2  and  C_3 
REMARK    2  A    between atoms: N_5  and  C_6 
REMARK    3  A    between atoms: C_6  and  C_7 
REMARK    4  A    between atoms: C_7  and  N_8 
REMARK    5  A    between atoms: C_12  and  N_13 
REMARK    6  A    between atoms: C_16  and  C_17 
REMARK       I    between atoms: C_17  and  N_19 
ROOT
HETATM    1  N   UNK N   1      40.137  38.157  51.302  0.00  0.00    -0.284 N 
HETATM    2  N   UNK N   1      40.347  39.109  52.205  0.00  0.00    -0.292 N 
ATOM      3  HN  UNK N   1      41.147  39.742  52.219  1.00  0.00     0.187 HD
HETATM    4  C   UNK N   1      39.337  39.107  53.098  0.00  0.00     0.126 A 
HETATM    5  C   UNK N   1      38.445  38.101  52.757  0.00  0.00     0.019 A 
HETATM    6  C   UNK N   1      38.970  37.505  51.603  0.00  0.00     0.072 A 
HETATM    7  C   UNK N   1      38.255  36.417  50.808  0.00  0.00     0.014 A 
HETATM    8  C   UNK N   1      38.914  35.533  49.922  0.00  0.00     0.015 A 
HETATM    9  C   UNK N   1      38.195  34.576  49.198  0.00  0.00     0.001 A 
HETATM   10  C   UNK N   1      36.812  34.477  49.336  0.00  0.00     0.002 A 
HETATM   11  C   UNK N   1      36.141  35.321  50.214  0.00  0.00     0.024 A 
HETATM   12  C   UNK N   1      36.852  36.274  50.949  0.00  0.00     0.072 A 
HETATM   13  S   UNK N   1      36.009  37.324  52.098  0.00  0.00     0.180 S 
HETATM   14  O   UNK N   1      34.744  36.652  52.651  0.00  0.00    -0.222 OA
HETATM   15  O   UNK N   1      35.460  38.568  51.382  0.00  0.00    -0.222 OA
HETATM   16  C   UNK N   1      37.126  37.785  53.417  0.00  0.00     0.189 C 
ENDROOT
BRANCH   1  17
HETATM   17  C   UNK N   1      40.995  38.013  50.110  0.00  0.00     0.137 C 
HETATM   18  C   UNK N   1      41.858  39.285  49.960  0.00  0.00     0.031 C 
HETATM   19  C   UNK N   1      42.773  39.179  48.747  0.00  0.00     0.032 C 
HETATM   20  C   UNK N   1      43.628  37.917  48.849  0.00  0.00     0.272 C 
HETATM   21  N   UNK N   1      42.752  36.731  48.937  0.00  0.00     0.092 N 
HETATM   22  C   UNK N   1      41.939  36.784  50.178  0.00  0.00     0.299 C 
BRANCH  21  23
HETATM   23  C   UNK N   1      43.541  35.491  48.771  0.00  0.00     0.302 C 
BRANCH  23  24
HETATM   24  C   UNK N   1      42.721  34.247  49.191  0.00  0.00     0.302 C 
BRANCH  24  25
HETATM   25  N   UNK N   1      42.237  33.359  48.104  0.00  0.00     0.095 N 
HETATM   26  C   UNK N   1      41.333  34.023  47.156  0.00  0.00     0.306 A 
HETATM   27  C   UNK N   1      42.316  33.877  45.999  0.00  0.00     0.177 A 
HETATM   28  C   UNK N   1      43.156  33.080  46.993  0.00  0.00     0.306 A 
BRANCH  27  29
HETATM   29  O   UNK N   1      41.839  33.064  44.947  0.00  0.00    -0.387 OA
HETATM   30  C   UNK N   1      42.061  33.718  43.719  0.00  0.00     0.202 C 
ENDBRANCH  27  29
ENDBRANCH  24  25
ENDBRANCH  23  24
ENDBRANCH  21  23
ENDBRANCH   1  17
BRANCH   4  31
HETATM   31  C   UNK N   1      39.175  40.068  54.239  0.00  0.00     0.272 C 
HETATM   32  O   UNK N   1      38.906  41.229  53.966  0.00  0.00    -0.266 OA
HETATM   33  N   UNK N   1      39.368  39.726  55.561  0.00  0.00    -0.343 N 
HETATM   34  C   UNK N   1      39.805  38.376  55.938  0.00  0.00     0.152 C 
HETATM   35  C   UNK N   1      39.356  40.814  56.550  0.00  0.00     0.152 C 
HETATM   36  C   UNK N   1      39.975  38.190  57.449  0.00  0.00     0.187 C 
HETATM   37  O   UNK N   1      40.561  39.336  58.029  0.00  0.00    -0.388 OA
HETATM   38  C   UNK N   1      39.581  40.351  57.988  0.00  0.00     0.187 C 
ENDBRANCH   4  31
TORSDOF 6
ENDMDL
MODEL 9
REMARK VINA RESULT:      -7.0      4.831      7.684
REMARK  6 active torsions:
REMARK  status: ('A' for Active; 'I' for Inactive)
REMARK    1  A    between atoms: O_2  and  C_3 
REMARK    2  A    between atoms: N_5  and  C_6 
REMARK    3  A    between atoms: C_6  and  C_7 
REMARK    4  A    between atoms: C_7  and  N_8 
REMARK    5  A    between atoms: C_12  and  N_13 
REMARK    6  A    between atoms: C_16  and  C_17 
REMARK       I    between atoms: C_17  and  N_19 
ROOT
HETATM    1  N   UNK N   1      38.807  37.155  51.150  0.00  0.00    -0.284 N 
HETATM    2  N   UNK N   1      39.027  36.249  52.096  0.00  0.00    -0.292 N 
ATOM      3  HN  UNK N   1      39.922  35.796  52.281  1.00  0.00     0.187 HD
HETATM    4  C   UNK N   1      37.882  36.024  52.771  0.00  0.00     0.126 A 
HETATM    5  C   UNK N   1      36.882  36.815  52.227  0.00  0.00     0.019 A 
HETATM    6  C   UNK N   1      37.491  37.535  51.192  0.00  0.00     0.072 A 
HETATM    7  C   UNK N   1      36.788  38.621  50.383  0.00  0.00     0.014 A 
HETATM    8  C   UNK N   1      37.220  39.053  49.108  0.00  0.00     0.015 A 
HETATM    9  C   UNK N   1      36.548  40.076  48.432  0.00  0.00     0.001 A 
HETATM   10  C   UNK N   1      35.437  40.691  49.004  0.00  0.00     0.002 A 
HETATM   11  C   UNK N   1      34.978  40.274  50.249  0.00  0.00     0.024 A 
HETATM   12  C   UNK N   1      35.638  39.246  50.928  0.00  0.00     0.072 A 
HETATM   13  S   UNK N   1      35.035  38.682  52.495  0.00  0.00     0.180 S 
HETATM   14  O   UNK N   1      33.521  38.901  52.626  0.00  0.00    -0.222 OA
HETATM   15  O   UNK N   1      35.613  39.542  53.630  0.00  0.00    -0.222 OA
HETATM   16  C   UNK N   1      35.463  36.959  52.714  0.00  0.00     0.189 C 
ENDROOT
BRANCH   1  17
HETATM   17  C   UNK N   1      39.906  37.720  50.342  0.00  0.00     0.137 C 
HETATM   18  C   UNK N   1      40.063  39.216  50.690  0.00  0.00     0.031 C 
HETATM   19  C   UNK N   1      41.197  39.843  49.889  0.00  0.00     0.032 C 
HETATM   20  C   UNK N   1      42.491  39.064  50.121  0.00  0.00     0.272 C 
HETATM   21  N   UNK N   1      42.298  37.654  49.723  0.00  0.00     0.092 N 
HETATM   22  C   UNK N   1      41.267  37.015  50.579  0.00  0.00     0.299 C 
BRANCH  21  23
HETATM   23  C   UNK N   1      43.594  36.945  49.686  0.00  0.00     0.302 C 
BRANCH  23  24
HETATM   24  C   UNK N   1      44.536  37.444  50.810  0.00  0.00     0.302 C 
BRANCH  24  25
HETATM   25  N   UNK N   1      45.980  37.130  50.669  0.00  0.00     0.095 N 
HETATM   26  C   UNK N   1      46.470  37.203  49.286  0.00  0.00     0.306 A 
HETATM   27  C   UNK N   1      47.387  38.382  49.592  0.00  0.00     0.177 A 
HETATM   28  C   UNK N   1      46.944  38.175  51.038  0.00  0.00     0.306 A 
BRANCH  27  29
HETATM   29  O   UNK N   1      48.759  38.094  49.420  0.00  0.00    -0.387 OA
HETATM   30  C   UNK N   1      49.267  38.874  48.362  0.00  0.00     0.202 C 
ENDBRANCH  27  29
ENDBRANCH  24  25
ENDBRANCH  23  24
ENDBRANCH  21  23
ENDBRANCH   1  17
BRANCH   4  31
HETATM   31  C   UNK N   1      37.728  35.111  53.952  0.00  0.00     0.272 C 
HETATM   32  O   UNK N   1      37.971  35.572  55.058  0.00  0.00    -0.266 OA
HETATM   33  N   UNK N   1      37.387  33.778  53.851  0.00  0.00    -0.343 N 
HETATM   34  C   UNK N   1      37.196  33.144  52.540  0.00  0.00     0.152 C 
HETATM   35  C   UNK N   1      37.455  32.967  55.075  0.00  0.00     0.152 C 
HETATM   36  C   UNK N   1      36.831  31.658  52.630  0.00  0.00     0.187 C 
HETATM   37  O   UNK N   1      37.573  31.023  53.649  0.00  0.00    -0.388 OA
HETATM   38  C   UNK N   1      37.065  31.503  54.875  0.00  0.00     0.187 C 
ENDBRANCH   4  31
TORSDOF 6
ENDMDL
