MODEL 1
REMARK VINA RESULT:      -8.9      0.000      0.000
REMARK  4 active torsions:
REMARK  status: ('A' for Active; 'I' for Inactive)
REMARK    1  A    between atoms: C_2  and  C_3 
REMARK       I    between atoms: C_2  and  N_31 
REMARK    2  A    between atoms: N_6  and  C_7 
REMARK    3  A    between atoms: N_11  and  C_12 
REMARK    4  A    between atoms: C_12  and  C_13 
ROOT
HETATM    1  C   UNK N   1      40.098  35.091  48.996  0.00  0.00     0.126 A 
HETATM    2  N   UNK N   1      41.086  35.689  49.673  0.00  0.00    -0.292 N 
ATOM      3  HN  UNK N   1      40.967  36.245  50.519  1.00  0.00     0.187 HD
HETATM    4  N   UNK N   1      42.242  35.446  49.075  0.00  0.00    -0.284 N 
HETATM    5  C   UNK N   1      42.022  34.654  47.983  0.00  0.00     0.072 A 
HETATM    6  C   UNK N   1      40.635  34.444  47.897  0.00  0.00     0.019 A 
HETATM    7  C   UNK N   1      39.869  33.692  46.842  0.00  0.00     0.189 C 
HETATM    8  S   UNK N   1      40.904  33.677  45.368  0.00  0.00     0.180 S 
HETATM    9  O   UNK N   1      40.481  32.575  44.386  0.00  0.00    -0.222 OA
HETATM   10  O   UNK N   1      40.667  34.957  44.549  0.00  0.00    -0.222 OA
HETATM   11  C   UNK N   1      42.623  33.565  45.774  0.00  0.00     0.072 A 
HETATM   12  C   UNK N   1      43.528  32.981  44.880  0.00  0.00     0.024 A 
HETATM   13  C   UNK N   1      44.864  32.830  45.241  0.00  0.00     0.002 A 
HETATM   14  C   UNK N   1      45.294  33.245  46.499  0.00  0.00     0.001 A 
HETATM   15  C   UNK N   1      44.397  33.840  47.393  0.00  0.00     0.015 A 
HETATM   16  C   UNK N   1      43.043  34.040  47.038  0.00  0.00     0.014 A 
ENDROOT
BRANCH   4  17
HETATM   17  C   UNK N   1      43.478  36.050  49.596  0.00  0.00     0.137 C 
HETATM   18  C   UNK N   1      43.897  37.266  48.722  0.00  0.00     0.031 C 
HETATM   19  C   UNK N   1      43.292  38.547  49.296  0.00  0.00     0.032 C 
HETATM   20  C   UNK N   1      43.920  38.786  50.694  0.00  0.00     0.272 C 
HETATM   21  N   UNK N   1      44.181  37.528  51.454  0.00  0.00     0.090 N 
HETATM   22  C   UNK N   1      43.231  36.472  51.070  0.00  0.00     0.299 C 
BRANCH  21  23
HETATM   23  C   UNK N   1      44.215  37.722  52.919  0.00  0.00     0.279 C 
BRANCH  23  24
HETATM   24  C   UNK N   1      44.869  39.057  53.336  0.00  0.00     0.040 C 
HETATM   25  C   UNK N   1      44.437  39.679  54.635  0.00  0.00     0.035 C 
HETATM   26  C   UNK N   1      45.556  40.693  54.791  0.00  0.00     0.168 C 
HETATM   27  O   UNK N   1      46.751  40.074  54.356  0.00  0.00    -0.391 OA
HETATM   28  C   UNK N   1      46.355  38.913  53.651  0.00  0.00     0.173 C 
ENDBRANCH  23  24
ENDBRANCH  21  23
ENDBRANCH   4  17
BRANCH   1  29
HETATM   29  C   UNK N   1      38.709  35.044  49.504  0.00  0.00     0.272 C 
HETATM   30  O   UNK N   1      38.166  33.949  49.565  0.00  0.00    -0.266 OA
HETATM   31  N   UNK N   1      38.051  36.152  49.988  0.00  0.00    -0.343 N 
HETATM   32  C   UNK N   1      38.452  37.522  49.676  0.00  0.00     0.152 C 
HETATM   33  C   UNK N   1      36.850  35.978  50.796  0.00  0.00     0.152 C 
HETATM   34  C   UNK N   1      38.416  38.406  50.941  0.00  0.00     0.187 C 
HETATM   35  O   UNK N   1      37.389  38.080  51.880  0.00  0.00    -0.388 OA
HETATM   36  C   UNK N   1      36.333  37.336  51.301  0.00  0.00     0.187 C 
ENDBRANCH   1  29
TORSDOF 4
ENDMDL
MODEL 2
REMARK VINA RESULT:      -8.8      2.600      7.705
REMARK  4 active torsions:
REMARK  status: ('A' for Active; 'I' for Inactive)
REMARK    1  A    between atoms: C_2  and  C_3 
REMARK       I    between atoms: C_2  and  N_31 
REMARK    2  A    between atoms: N_6  and  C_7 
REMARK    3  A    between atoms: N_11  and  C_12 
REMARK    4  A    between atoms: C_12  and  C_13 
ROOT
HETATM    1  C   UNK N   1      42.455  35.804  48.343  0.00  0.00     0.126 A 
HETATM    2  N   UNK N   1      41.305  36.195  48.906  0.00  0.00    -0.292 N 
ATOM      3  HN  UNK N   1      40.373  35.978  48.553  1.00  0.00     0.187 HD
HETATM    4  N   UNK N   1      41.564  36.906  49.991  0.00  0.00    -0.284 N 
HETATM    5  C   UNK N   1      42.918  36.977  50.167  0.00  0.00     0.072 A 
HETATM    6  C   UNK N   1      43.511  36.298  49.089  0.00  0.00     0.019 A 
HETATM    7  C   UNK N   1      44.975  36.138  48.779  0.00  0.00     0.189 C 
HETATM    8  S   UNK N   1      45.826  37.493  49.605  0.00  0.00     0.180 S 
HETATM    9  O   UNK N   1      47.325  37.206  49.773  0.00  0.00    -0.222 OA
HETATM   10  O   UNK N   1      45.828  38.738  48.702  0.00  0.00    -0.222 OA
HETATM   11  C   UNK N   1      45.063  37.905  51.148  0.00  0.00     0.072 A 
HETATM   12  C   UNK N   1      45.815  38.471  52.184  0.00  0.00     0.024 A 
HETATM   13  C   UNK N   1      45.221  38.721  53.418  0.00  0.00     0.002 A 
HETATM   14  C   UNK N   1      43.885  38.390  53.625  0.00  0.00     0.001 A 
HETATM   15  C   UNK N   1      43.124  37.835  52.590  0.00  0.00     0.015 A 
HETATM   16  C   UNK N   1      43.692  37.605  51.315  0.00  0.00     0.014 A 
ENDROOT
BRANCH   4  17
HETATM   17  C   UNK N   1      40.459  37.506  50.755  0.00  0.00     0.137 C 
HETATM   18  C   UNK N   1      40.254  38.990  50.338  0.00  0.00     0.031 C 
HETATM   19  C   UNK N   1      39.225  39.072  49.211  0.00  0.00     0.032 C 
HETATM   20  C   UNK N   1      37.862  38.592  49.774  0.00  0.00     0.272 C 
HETATM   21  N   UNK N   1      37.983  37.483  50.766  0.00  0.00     0.090 N 
HETATM   22  C   UNK N   1      39.178  36.665  50.501  0.00  0.00     0.299 C 
BRANCH  21  23
HETATM   23  C   UNK N   1      36.766  36.649  50.868  0.00  0.00     0.279 C 
BRANCH  23  24
HETATM   24  C   UNK N   1      36.996  35.189  50.422  0.00  0.00     0.040 C 
HETATM   25  C   UNK N   1      36.404  34.092  51.264  0.00  0.00     0.035 C 
HETATM   26  C   UNK N   1      36.550  32.942  50.285  0.00  0.00     0.168 C 
HETATM   27  O   UNK N   1      36.261  33.446  48.995  0.00  0.00    -0.391 OA
HETATM   28  C   UNK N   1      36.292  34.855  49.110  0.00  0.00     0.173 C 
ENDBRANCH  23  24
ENDBRANCH  21  23
ENDBRANCH   4  17
BRANCH   1  29
HETATM   29  C   UNK N   1      42.495  34.859  47.205  0.00  0.00     0.272 C 
HETATM   30  O   UNK N   1      42.179  35.287  46.103  0.00  0.00    -0.266 OA
HETATM   31  N   UNK N   1      42.952  33.565  47.322  0.00  0.00    -0.343 N 
HETATM   32  C   UNK N   1      43.041  32.858  48.598  0.00  0.00     0.152 C 
HETATM   33  C   UNK N   1      43.306  32.817  46.121  0.00  0.00     0.152 C 
HETATM   34  C   UNK N   1      44.376  32.092  48.709  0.00  0.00     0.187 C 
HETATM   35  O   UNK N   1      44.876  31.563  47.479  0.00  0.00    -0.388 OA
HETATM   36  C   UNK N   1      43.872  31.435  46.489  0.00  0.00     0.187 C 
ENDBRANCH   1  29
TORSDOF 4
ENDMDL
MODEL 3
REMARK VINA RESULT:      -8.7      2.699      7.524
REMARK  4 active torsions:
REMARK  status: ('A' for Active; 'I' for Inactive)
REMARK    1  A    between atoms: C_2  and  C_3 
REMARK       I    between atoms: C_2  and  N_31 
REMARK    2  A    between atoms: N_6  and  C_7 
REMARK    3  A    between atoms: N_11  and  C_12 
REMARK    4  A    between atoms: C_12  and  C_13 
ROOT
HETATM    1  C   UNK N   1      40.852  38.138  49.913  0.00  0.00     0.126 A 
HETATM    2  N   UNK N   1      41.255  37.096  49.176  0.00  0.00    -0.292 N 
ATOM      3  HN  UNK N   1      40.673  36.581  48.516  1.00  0.00     0.187 HD
HETATM    4  N   UNK N   1      42.528  36.839  49.433  0.00  0.00    -0.284 N 
HETATM    5  C   UNK N   1      42.990  37.740  50.351  0.00  0.00     0.072 A 
HETATM    6  C   UNK N   1      41.907  38.567  50.699  0.00  0.00     0.019 A 
HETATM    7  C   UNK N   1      41.871  39.677  51.713  0.00  0.00     0.189 C 
HETATM    8  S   UNK N   1      43.204  39.353  52.879  0.00  0.00     0.180 S 
HETATM    9  O   UNK N   1      43.586  40.611  53.672  0.00  0.00    -0.222 OA
HETATM   10  O   UNK N   1      42.714  38.403  53.984  0.00  0.00    -0.222 OA
HETATM   11  C   UNK N   1      44.611  38.631  52.084  0.00  0.00     0.072 A 
HETATM   12  C   UNK N   1      45.896  38.816  52.606  0.00  0.00     0.024 A 
HETATM   13  C   UNK N   1      47.002  38.307  51.931  0.00  0.00     0.002 A 
HETATM   14  C   UNK N   1      46.828  37.629  50.727  0.00  0.00     0.001 A 
HETATM   15  C   UNK N   1      45.545  37.430  50.205  0.00  0.00     0.015 A 
HETATM   16  C   UNK N   1      44.402  37.904  50.890  0.00  0.00     0.014 A 
ENDROOT
BRANCH   4  17
HETATM   17  C   UNK N   1      43.188  35.692  48.790  0.00  0.00     0.137 C 
HETATM   18  C   UNK N   1      42.792  34.368  49.503  0.00  0.00     0.031 C 
HETATM   19  C   UNK N   1      41.567  33.761  48.821  0.00  0.00     0.032 C 
HETATM   20  C   UNK N   1      41.971  33.366  47.377  0.00  0.00     0.272 C 
HETATM   21  N   UNK N   1      42.939  34.313  46.748  0.00  0.00     0.090 N 
HETATM   22  C   UNK N   1      42.779  35.671  47.291  0.00  0.00     0.299 C 
BRANCH  21  23
HETATM   23  C   UNK N   1      42.891  34.309  45.270  0.00  0.00     0.279 C 
BRANCH  23  24
HETATM   24  C   UNK N   1      42.410  32.964  44.686  0.00  0.00     0.040 C 
HETATM   25  C   UNK N   1      42.167  32.885  43.204  0.00  0.00     0.035 C 
HETATM   26  C   UNK N   1      42.094  31.376  43.060  0.00  0.00     0.168 C 
HETATM   27  O   UNK N   1      43.072  30.822  43.919  0.00  0.00    -0.391 OA
HETATM   28  C   UNK N   1      43.464  31.866  44.789  0.00  0.00     0.173 C 
ENDBRANCH  23  24
ENDBRANCH  21  23
ENDBRANCH   4  17
BRANCH   1  29
HETATM   29  C   UNK N   1      39.525  38.767  49.731  0.00  0.00     0.272 C 
HETATM   30  O   UNK N   1      39.383  39.519  48.775  0.00  0.00    -0.266 OA
HETATM   31  N   UNK N   1      38.442  38.474  50.527  0.00  0.00    -0.343 N 
HETATM   32  C   UNK N   1      38.560  37.869  51.852  0.00  0.00     0.152 C 
HETATM   33  C   UNK N   1      37.102  38.837  50.080  0.00  0.00     0.152 C 
HETATM   34  C   UNK N   1      37.513  36.751  52.042  0.00  0.00     0.187 C 
HETATM   35  O   UNK N   1      36.263  36.975  51.387  0.00  0.00    -0.388 OA
HETATM   36  C   UNK N   1      36.042  38.338  51.077  0.00  0.00     0.187 C 
ENDBRANCH   1  29
TORSDOF 4
ENDMDL
MODEL 4
REMARK VINA RESULT:      -8.3      3.757      7.776
REMARK  4 active torsions:
REMARK  status: ('A' for Active; 'I' for Inactive)
REMARK    1  A    between atoms: C_2  and  C_3 
REMARK       I    between atoms: C_2  and  N_31 
REMARK    2  A    between atoms: N_6  and  C_7 
REMARK    3  A    between atoms: N_11  and  C_12 
REMARK    4  A    between atoms: C_12  and  C_13 
ROOT
HETATM    1  C   UNK N   1      37.949  36.681  52.830  0.00  0.00     0.126 A 
HETATM    2  N   UNK N   1      38.974  36.648  51.969  0.00  0.00    -0.292 N 
ATOM      3  HN  UNK N   1      39.833  36.114  52.097  1.00  0.00     0.187 HD
HETATM    4  N   UNK N   1      38.698  37.413  50.925  0.00  0.00    -0.284 N 
HETATM    5  C   UNK N   1      37.454  37.956  51.085  0.00  0.00     0.072 A 
HETATM    6  C   UNK N   1      36.970  37.520  52.331  0.00  0.00     0.019 A 
HETATM    7  C   UNK N   1      35.675  37.883  53.006  0.00  0.00     0.189 C 
HETATM    8  S   UNK N   1      35.152  39.457  52.305  0.00  0.00     0.180 S 
HETATM    9  O   UNK N   1      33.657  39.716  52.539  0.00  0.00    -0.222 OA
HETATM   10  O   UNK N   1      35.811  40.615  53.072  0.00  0.00    -0.222 OA
HETATM   11  C   UNK N   1      35.576  39.586  50.592  0.00  0.00     0.072 A 
HETATM   12  C   UNK N   1      34.819  40.388  49.731  0.00  0.00     0.024 A 
HETATM   13  C   UNK N   1      35.117  40.423  48.371  0.00  0.00     0.002 A 
HETATM   14  C   UNK N   1      36.157  39.646  47.868  0.00  0.00     0.001 A 
HETATM   15  C   UNK N   1      36.925  38.850  48.725  0.00  0.00     0.015 A 
HETATM   16  C   UNK N   1      36.668  38.825  50.116  0.00  0.00     0.014 A 
ENDROOT
BRANCH   4  17
HETATM   17  C   UNK N   1      39.700  37.592  49.863  0.00  0.00     0.137 C 
HETATM   18  C   UNK N   1      40.312  39.020  49.930  0.00  0.00     0.031 C 
HETATM   19  C   UNK N   1      41.566  39.002  50.804  0.00  0.00     0.032 C 
HETATM   20  C   UNK N   1      42.625  38.114  50.100  0.00  0.00     0.272 C 
HETATM   21  N   UNK N   1      42.041  36.938  49.390  0.00  0.00     0.090 N 
HETATM   22  C   UNK N   1      40.792  36.500  50.032  0.00  0.00     0.299 C 
BRANCH  21  23
HETATM   23  C   UNK N   1      42.991  35.816  49.228  0.00  0.00     0.279 C 
BRANCH  23  24
HETATM   24  C   UNK N   1      42.405  34.642  48.415  0.00  0.00     0.040 C 
HETATM   25  C   UNK N   1      42.554  34.677  46.918  0.00  0.00     0.035 C 
HETATM   26  C   UNK N   1      42.199  33.233  46.616  0.00  0.00     0.168 C 
HETATM   27  O   UNK N   1      42.770  32.435  47.635  0.00  0.00    -0.391 OA
HETATM   28  C   UNK N   1      43.131  33.326  48.672  0.00  0.00     0.173 C 
ENDBRANCH  23  24
ENDBRANCH  21  23
ENDBRANCH   4  17
BRANCH   1  29
HETATM   29  C   UNK N   1      37.889  35.801  54.019  0.00  0.00     0.272 C 
HETATM   30  O   UNK N   1      37.645  34.616  53.834  0.00  0.00    -0.266 OA
HETATM   31  N   UNK N   1      38.181  36.240  55.291  0.00  0.00    -0.343 N 
HETATM   32  C   UNK N   1      38.163  37.649  55.677  0.00  0.00     0.152 C 
HETATM   33  C   UNK N   1      38.457  35.266  56.341  0.00  0.00     0.152 C 
HETATM   34  C   UNK N   1      39.392  37.997  56.544  0.00  0.00     0.187 C 
HETATM   35  O   UNK N   1      39.840  36.949  57.407  0.00  0.00    -0.388 OA
HETATM   36  C   UNK N   1      38.843  35.974  57.650  0.00  0.00     0.187 C 
ENDBRANCH   1  29
TORSDOF 4
ENDMDL
MODEL 5
REMARK VINA RESULT:      -8.1      4.212      6.118
REMARK  4 active torsions:
REMARK  status: ('A' for Active; 'I' for Inactive)
REMARK    1  A    between atoms: C_2  and  C_3 
REMARK       I    between atoms: C_2  and  N_31 
REMARK    2  A    between atoms: N_6  and  C_7 
REMARK    3  A    between atoms: N_11  and  C_12 
REMARK    4  A    between atoms: C_12  and  C_13 
ROOT
HETATM    1  C   UNK N   1      40.005  39.199  52.632  0.00  0.00     0.126 A 
HETATM    2  N   UNK N   1      41.061  38.921  51.858  0.00  0.00    -0.292 N 
ATOM      3  HN  UNK N   1      41.970  39.379  51.915  1.00  0.00     0.187 HD
HETATM    4  N   UNK N   1      40.743  37.958  51.008  0.00  0.00    -0.284 N 
HETATM    5  C   UNK N   1      39.450  37.573  51.230  0.00  0.00     0.072 A 
HETATM    6  C   UNK N   1      38.947  38.392  52.256  0.00  0.00     0.019 A 
HETATM    7  C   UNK N   1      37.556  38.415  52.831  0.00  0.00     0.189 C 
HETATM    8  S   UNK N   1      36.467  37.724  51.575  0.00  0.00     0.180 S 
HETATM    9  O   UNK N   1      35.133  37.256  52.173  0.00  0.00    -0.222 OA
HETATM   10  O   UNK N   1      36.023  38.829  50.602  0.00  0.00    -0.222 OA
HETATM   11  C   UNK N   1      37.259  36.435  50.658  0.00  0.00     0.072 A 
HETATM   12  C   UNK N   1      36.504  35.410  50.075  0.00  0.00     0.024 A 
HETATM   13  C   UNK N   1      37.144  34.361  49.420  0.00  0.00     0.002 A 
HETATM   14  C   UNK N   1      38.534  34.324  49.361  0.00  0.00     0.001 A 
HETATM   15  C   UNK N   1      39.295  35.351  49.931  0.00  0.00     0.015 A 
HETATM   16  C   UNK N   1      38.670  36.447  50.570  0.00  0.00     0.014 A 
ENDROOT
BRANCH   4  17
HETATM   17  C   UNK N   1      41.722  37.515  50.003  0.00  0.00     0.137 C 
HETATM   18  C   UNK N   1      41.790  38.531  48.827  0.00  0.00     0.031 C 
HETATM   19  C   UNK N   1      42.876  39.569  49.105  0.00  0.00     0.032 C 
HETATM   20  C   UNK N   1      44.244  38.836  49.118  0.00  0.00     0.272 C 
HETATM   21  N   UNK N   1      44.179  37.464  49.702  0.00  0.00     0.090 N 
HETATM   22  C   UNK N   1      43.102  37.363  50.700  0.00  0.00     0.299 C 
BRANCH  21  23
HETATM   23  C   UNK N   1      45.471  36.995  50.249  0.00  0.00     0.279 C 
BRANCH  23  24
HETATM   24  C   UNK N   1      46.498  38.134  50.430  0.00  0.00     0.040 C 
HETATM   25  C   UNK N   1      47.249  38.207  51.731  0.00  0.00     0.035 C 
HETATM   26  C   UNK N   1      48.340  39.177  51.315  0.00  0.00     0.168 C 
HETATM   27  O   UNK N   1      48.712  38.852  49.990  0.00  0.00    -0.391 OA
HETATM   28  C   UNK N   1      47.697  38.000  49.496  0.00  0.00     0.173 C 
ENDBRANCH  23  24
ENDBRANCH  21  23
ENDBRANCH   4  17
BRANCH   1  29
HETATM   29  C   UNK N   1      40.095  40.119  53.788  0.00  0.00     0.272 C 
HETATM   30  O   UNK N   1      39.947  41.315  53.572  0.00  0.00    -0.266 OA
HETATM   31  N   UNK N   1      40.246  39.681  55.084  0.00  0.00    -0.343 N 
HETATM   32  C   UNK N   1      40.747  38.352  55.428  0.00  0.00     0.152 C 
HETATM   33  C   UNK N   1      39.964  40.591  56.188  0.00  0.00     0.152 C 
HETATM   34  C   UNK N   1      39.905  37.722  56.558  0.00  0.00     0.187 C 
HETATM   35  O   UNK N   1      39.398  38.647  57.523  0.00  0.00    -0.388 OA
HETATM   36  C   UNK N   1      40.111  39.870  57.538  0.00  0.00     0.187 C 
ENDBRANCH   1  29
TORSDOF 4
ENDMDL
MODEL 6
REMARK VINA RESULT:      -8.1      3.735      5.976
REMARK  4 active torsions:
REMARK  status: ('A' for Active; 'I' for Inactive)
REMARK    1  A    between atoms: C_2  and  C_3 
REMARK       I    between atoms: C_2  and  N_31 
REMARK    2  A    between atoms: N_6  and  C_7 
REMARK    3  A    between atoms: N_11  and  C_12 
REMARK    4  A    between atoms: C_12  and  C_13 
ROOT
HETATM    1  C   UNK N   1      41.878  37.157  50.885  0.00  0.00     0.126 A 
HETATM    2  N   UNK N   1      41.472  37.981  51.859  0.00  0.00    -0.292 N 
ATOM      3  HN  UNK N   1      40.502  38.136  52.133  1.00  0.00     0.187 HD
HETATM    4  N   UNK N   1      42.524  38.561  52.413  0.00  0.00    -0.284 N 
HETATM    5  C   UNK N   1      43.660  38.102  51.806  0.00  0.00     0.072 A 
HETATM    6  C   UNK N   1      43.256  37.218  50.790  0.00  0.00     0.019 A 
HETATM    7  C   UNK N   1      44.116  36.492  49.792  0.00  0.00     0.189 C 
HETATM    8  S   UNK N   1      45.649  37.427  49.656  0.00  0.00     0.180 S 
HETATM    9  O   UNK N   1      46.781  36.581  49.054  0.00  0.00    -0.222 OA
HETATM   10  O   UNK N   1      45.488  38.548  48.616  0.00  0.00    -0.222 OA
HETATM   11  C   UNK N   1      46.121  38.142  51.204  0.00  0.00     0.072 A 
HETATM   12  C   UNK N   1      47.468  38.395  51.489  0.00  0.00     0.024 A 
HETATM   13  C   UNK N   1      47.835  38.888  52.739  0.00  0.00     0.002 A 
HETATM   14  C   UNK N   1      46.861  39.111  53.709  0.00  0.00     0.001 A 
HETATM   15  C   UNK N   1      45.512  38.871  53.427  0.00  0.00     0.015 A 
HETATM   16  C   UNK N   1      45.108  38.407  52.154  0.00  0.00     0.014 A 
ENDROOT
BRANCH   4  17
HETATM   17  C   UNK N   1      42.334  39.564  53.473  0.00  0.00     0.137 C 
HETATM   18  C   UNK N   1      41.431  40.724  52.966  0.00  0.00     0.031 C 
HETATM   19  C   UNK N   1      39.970  40.422  53.297  0.00  0.00     0.032 C 
HETATM   20  C   UNK N   1      39.824  40.408  54.841  0.00  0.00     0.272 C 
HETATM   21  N   UNK N   1      41.013  39.844  55.548  0.00  0.00     0.090 N 
HETATM   22  C   UNK N   1      41.709  38.858  54.707  0.00  0.00     0.299 C 
BRANCH  21  23
HETATM   23  C   UNK N   1      40.697  39.294  56.884  0.00  0.00     0.279 C 
BRANCH  23  24
HETATM   24  C   UNK N   1      40.794  40.347  58.008  0.00  0.00     0.040 C 
HETATM   25  C   UNK N   1      40.106  40.052  59.313  0.00  0.00     0.035 C 
HETATM   26  C   UNK N   1      40.765  41.118  60.169  0.00  0.00     0.168 C 
HETATM   27  O   UNK N   1      42.121  41.197  59.777  0.00  0.00    -0.391 OA
HETATM   28  C   UNK N   1      42.213  40.508  58.545  0.00  0.00     0.173 C 
ENDBRANCH  23  24
ENDBRANCH  21  23
ENDBRANCH   4  17
BRANCH   1  29
HETATM   29  C   UNK N   1      40.947  36.243  50.186  0.00  0.00     0.272 C 
HETATM   30  O   UNK N   1      41.364  35.132  49.886  0.00  0.00    -0.266 OA
HETATM   31  N   UNK N   1      39.629  36.558  49.945  0.00  0.00    -0.343 N 
HETATM   32  C   UNK N   1      39.115  37.926  49.955  0.00  0.00     0.152 C 
HETATM   33  C   UNK N   1      38.690  35.499  49.593  0.00  0.00     0.152 C 
HETATM   34  C   UNK N   1      37.772  38.004  50.712  0.00  0.00     0.187 C 
HETATM   35  O   UNK N   1      36.937  36.851  50.584  0.00  0.00    -0.388 OA
HETATM   36  C   UNK N   1      37.264  36.059  49.457  0.00  0.00     0.187 C 
ENDBRANCH   1  29
TORSDOF 4
ENDMDL
MODEL 7
REMARK VINA RESULT:      -8.0      3.559      5.621
REMARK  4 active torsions:
REMARK  status: ('A' for Active; 'I' for Inactive)
REMARK    1  A    between atoms: C_2  and  C_3 
REMARK       I    between atoms: C_2  and  N_31 
REMARK    2  A    between atoms: N_6  and  C_7 
REMARK    3  A    between atoms: N_11  and  C_12 
REMARK    4  A    between atoms: C_12  and  C_13 
ROOT
HETATM    1  C   UNK N   1      40.438  38.379  51.420  0.00  0.00     0.126 A 
HETATM    2  N   UNK N   1      40.909  38.541  52.663  0.00  0.00    -0.292 N 
ATOM      3  HN  UNK N   1      40.337  38.612  53.505  1.00  0.00     0.187 HD
HETATM    4  N   UNK N   1      42.231  38.594  52.631  0.00  0.00    -0.284 N 
HETATM    5  C   UNK N   1      42.653  38.447  51.340  0.00  0.00     0.072 A 
HETATM    6  C   UNK N   1      41.503  38.341  50.539  0.00  0.00     0.019 A 
HETATM    7  C   UNK N   1      41.419  38.226  49.041  0.00  0.00     0.189 C 
HETATM    8  S   UNK N   1      42.949  38.911  48.384  0.00  0.00     0.180 S 
HETATM    9  O   UNK N   1      43.210  38.445  46.945  0.00  0.00    -0.222 OA
HETATM   10  O   UNK N   1      42.813  40.433  48.218  0.00  0.00    -0.222 OA
HETATM   11  C   UNK N   1      44.327  38.569  49.441  0.00  0.00     0.072 A 
HETATM   12  C   UNK N   1      45.621  38.477  48.914  0.00  0.00     0.024 A 
HETATM   13  C   UNK N   1      46.687  38.134  49.743  0.00  0.00     0.002 A 
HETATM   14  C   UNK N   1      46.460  37.866  51.090  0.00  0.00     0.001 A 
HETATM   15  C   UNK N   1      45.171  37.967  51.625  0.00  0.00     0.015 A 
HETATM   16  C   UNK N   1      44.077  38.351  50.815  0.00  0.00     0.014 A 
ENDROOT
BRANCH   4  17
HETATM   17  C   UNK N   1      42.984  38.832  53.872  0.00  0.00     0.137 C 
HETATM   18  C   UNK N   1      44.002  39.991  53.675  0.00  0.00     0.031 C 
HETATM   19  C   UNK N   1      43.357  41.318  54.074  0.00  0.00     0.032 C 
HETATM   20  C   UNK N   1      43.058  41.264  55.595  0.00  0.00     0.272 C 
HETATM   21  N   UNK N   1      42.641  39.912  56.074  0.00  0.00     0.090 N 
HETATM   22  C   UNK N   1      41.971  39.156  55.004  0.00  0.00     0.299 C 
BRANCH  21  23
HETATM   23  C   UNK N   1      41.825  39.950  57.306  0.00  0.00     0.279 C 
BRANCH  23  24
HETATM   24  C   UNK N   1      40.407  39.371  57.109  0.00  0.00     0.040 C 
HETATM   25  C   UNK N   1      39.935  38.318  58.074  0.00  0.00     0.035 C 
HETATM   26  C   UNK N   1      38.455  38.342  57.737  0.00  0.00     0.168 C 
HETATM   27  O   UNK N   1      38.095  39.692  57.512  0.00  0.00    -0.391 OA
HETATM   28  C   UNK N   1      39.310  40.400  57.359  0.00  0.00     0.173 C 
ENDBRANCH  23  24
ENDBRANCH  21  23
ENDBRANCH   4  17
BRANCH   1  29
HETATM   29  C   UNK N   1      39.006  38.123  51.146  0.00  0.00     0.272 C 
HETATM   30  O   UNK N   1      38.225  39.053  51.303  0.00  0.00    -0.266 OA
HETATM   31  N   UNK N   1      38.542  36.929  50.644  0.00  0.00    -0.343 N 
HETATM   32  C   UNK N   1      39.295  35.679  50.722  0.00  0.00     0.152 C 
HETATM   33  C   UNK N   1      37.207  36.865  50.061  0.00  0.00     0.152 C 
HETATM   34  C   UNK N   1      39.234  34.915  49.382  0.00  0.00     0.187 C 
HETATM   35  O   UNK N   1      38.006  35.051  48.663  0.00  0.00    -0.388 OA
HETATM   36  C   UNK N   1      36.931  35.465  49.486  0.00  0.00     0.187 C 
ENDBRANCH   1  29
TORSDOF 4
ENDMDL
MODEL 8
REMARK VINA RESULT:      -8.0      2.689      7.509
REMARK  4 active torsions:
REMARK  status: ('A' for Active; 'I' for Inactive)
REMARK    1  A    between atoms: C_2  and  C_3 
REMARK       I    between atoms: C_2  and  N_31 
REMARK    2  A    between atoms: N_6  and  C_7 
REMARK    3  A    between atoms: N_11  and  C_12 
REMARK    4  A    between atoms: C_12  and  C_13 
ROOT
HETATM    1  C   UNK N   1      42.520  35.875  48.444  0.00  0.00     0.126 A 
HETATM    2  N   UNK N   1      41.400  36.288  49.050  0.00  0.00    -0.292 N 
ATOM      3  HN  UNK N   1      40.451  36.088  48.734  1.00  0.00     0.187 HD
HETATM    4  N   UNK N   1      41.714  36.996  50.124  0.00  0.00    -0.284 N 
HETATM    5  C   UNK N   1      43.074  37.042  50.247  0.00  0.00     0.072 A 
HETATM    6  C   UNK N   1      43.612  36.351  49.147  0.00  0.00     0.019 A 
HETATM    7  C   UNK N   1      45.060  36.164  48.781  0.00  0.00     0.189 C 
HETATM    8  S   UNK N   1      45.967  37.504  49.570  0.00  0.00     0.180 S 
HETATM    9  O   UNK N   1      47.466  37.190  49.680  0.00  0.00    -0.222 OA
HETATM   10  O   UNK N   1      45.957  38.747  48.666  0.00  0.00    -0.222 OA
HETATM   11  C   UNK N   1      45.273  37.931  51.141  0.00  0.00     0.072 A 
HETATM   12  C   UNK N   1      46.075  38.485  52.146  0.00  0.00     0.024 A 
HETATM   13  C   UNK N   1      45.535  38.747  53.402  0.00  0.00     0.002 A 
HETATM   14  C   UNK N   1      44.201  38.441  53.662  0.00  0.00     0.001 A 
HETATM   15  C   UNK N   1      43.391  37.898  52.658  0.00  0.00     0.015 A 
HETATM   16  C   UNK N   1      43.904  37.657  51.363  0.00  0.00     0.014 A 
ENDROOT
BRANCH   4  17
HETATM   17  C   UNK N   1      40.650  37.616  50.929  0.00  0.00     0.137 C 
HETATM   18  C   UNK N   1      40.233  38.983  50.316  0.00  0.00     0.031 C 
HETATM   19  C   UNK N   1      39.072  38.779  49.343  0.00  0.00     0.032 C 
HETATM   20  C   UNK N   1      37.849  38.284  50.159  0.00  0.00     0.272 C 
HETATM   21  N   UNK N   1      38.212  37.375  51.286  0.00  0.00     0.090 N 
HETATM   22  C   UNK N   1      39.449  36.634  50.991  0.00  0.00     0.299 C 
BRANCH  21  23
HETATM   23  C   UNK N   1      37.116  36.466  51.686  0.00  0.00     0.279 C 
BRANCH  23  24
HETATM   24  C   UNK N   1      35.909  37.209  52.298  0.00  0.00     0.040 C 
HETATM   25  C   UNK N   1      34.739  36.388  52.767  0.00  0.00     0.035 C 
HETATM   26  C   UNK N   1      34.027  37.448  53.587  0.00  0.00     0.168 C 
HETATM   27  O   UNK N   1      35.019  38.203  54.255  0.00  0.00    -0.391 OA
HETATM   28  C   UNK N   1      36.244  37.884  53.624  0.00  0.00     0.173 C 
ENDBRANCH  23  24
ENDBRANCH  21  23
ENDBRANCH   4  17
BRANCH   1  29
HETATM   29  C   UNK N   1      42.498  34.928  47.307  0.00  0.00     0.272 C 
HETATM   30  O   UNK N   1      42.160  35.364  46.214  0.00  0.00    -0.266 OA
HETATM   31  N   UNK N   1      42.922  33.623  47.412  0.00  0.00    -0.343 N 
HETATM   32  C   UNK N   1      43.030  32.915  48.686  0.00  0.00     0.152 C 
HETATM   33  C   UNK N   1      43.217  32.864  46.202  0.00  0.00     0.152 C 
HETATM   34  C   UNK N   1      44.346  32.111  48.757  0.00  0.00     0.187 C 
HETATM   35  O   UNK N   1      44.792  31.568  47.513  0.00  0.00    -0.388 OA
HETATM   36  C   UNK N   1      43.755  31.467  46.555  0.00  0.00     0.187 C 
ENDBRANCH   1  29
TORSDOF 4
ENDMDL
MODEL 9
REMARK VINA RESULT:      -7.9      5.394      8.962
REMARK  4 active torsions:
REMARK  status: ('A' for Active; 'I' for Inactive)
REMARK    1  A    between atoms: C_2  and  C_3 
REMARK       I    between atoms: C_2  and  N_31 
REMARK    2  A    between atoms: N_6  and  C_7 
REMARK    3  A    between atoms: N_11  and  C_12 
REMARK    4  A    between atoms: C_12  and  C_13 
ROOT
HETATM    1  C   UNK N   1      41.023  33.989  43.971  0.00  0.00     0.126 A 
HETATM    2  N   UNK N   1      39.835  33.702  44.517  0.00  0.00    -0.292 N 
ATOM      3  HN  UNK N   1      39.654  33.609  45.516  1.00  0.00     0.187 HD
HETATM    4  N   UNK N   1      38.933  33.557  43.560  0.00  0.00    -0.284 N 
HETATM    5  C   UNK N   1      39.528  33.770  42.348  0.00  0.00     0.072 A 
HETATM    6  C   UNK N   1      40.890  34.016  42.594  0.00  0.00     0.019 A 
HETATM    7  C   UNK N   1      41.990  34.248  41.594  0.00  0.00     0.189 C 
HETATM    8  S   UNK N   1      41.444  33.506  40.047  0.00  0.00     0.180 S 
HETATM    9  O   UNK N   1      42.224  34.058  38.845  0.00  0.00    -0.222 OA
HETATM   10  O   UNK N   1      41.814  32.014  40.022  0.00  0.00    -0.222 OA
HETATM   11  C   UNK N   1      39.697  33.669  39.821  0.00  0.00     0.072 A 
HETATM   12  C   UNK N   1      39.146  33.708  38.535  0.00  0.00     0.024 A 
HETATM   13  C   UNK N   1      37.779  33.911  38.368  0.00  0.00     0.002 A 
HETATM   14  C   UNK N   1      36.964  34.094  39.483  0.00  0.00     0.001 A 
HETATM   15  C   UNK N   1      37.506  34.045  40.772  0.00  0.00     0.015 A 
HETATM   16  C   UNK N   1      38.885  33.803  40.971  0.00  0.00     0.014 A 
ENDROOT
BRANCH   4  17
HETATM   17  C   UNK N   1      37.555  33.174  43.905  0.00  0.00     0.137 C 
HETATM   18  C   UNK N   1      37.309  31.675  43.572  0.00  0.00     0.031 C 
HETATM   19  C   UNK N   1      37.618  30.817  44.799  0.00  0.00     0.032 C 
HETATM   20  C   UNK N   1      36.597  31.184  45.907  0.00  0.00     0.272 C 
HETATM   21  N   UNK N   1      36.230  32.631  45.925  0.00  0.00     0.090 N 
HETATM   22  C   UNK N   1      37.331  33.462  45.415  0.00  0.00     0.299 C 
BRANCH  21  23
HETATM   23  C   UNK N   1      35.759  33.102  47.245  0.00  0.00     0.279 C 
BRANCH  23  24
HETATM   24  C   UNK N   1      36.895  33.217  48.285  0.00  0.00     0.040 C 
HETATM   25  C   UNK N   1      37.101  34.545  48.961  0.00  0.00     0.035 C 
HETATM   26  C   UNK N   1      38.002  34.091  50.095  0.00  0.00     0.168 C 
HETATM   27  O   UNK N   1      37.526  32.834  50.536  0.00  0.00    -0.391 OA
HETATM   28  C   UNK N   1      36.640  32.378  49.532  0.00  0.00     0.173 C 
ENDBRANCH  23  24
ENDBRANCH  21  23
ENDBRANCH   4  17
BRANCH   1  29
HETATM   29  C   UNK N   1      42.198  34.366  44.789  0.00  0.00     0.272 C 
HETATM   30  O   UNK N   1      42.246  35.513  45.215  0.00  0.00    -0.266 OA
HETATM   31  N   UNK N   1      43.174  33.468  45.156  0.00  0.00    -0.343 N 
HETATM   32  C   UNK N   1      43.398  32.200  44.465  0.00  0.00     0.152 C 
HETATM   33  C   UNK N   1      44.087  33.803  46.242  0.00  0.00     0.152 C 
HETATM   34  C   UNK N   1      43.616  31.053  45.476  0.00  0.00     0.187 C 
HETATM   35  O   UNK N   1      44.294  31.427  46.677  0.00  0.00    -0.388 OA
HETATM   36  C   UNK N   1      45.032  32.627  46.541  0.00  0.00     0.187 C 
ENDBRANCH   1  29
TORSDOF 4
ENDMDL
