MODEL 1
REMARK VINA RESULT:      -9.0      0.000      0.000
REMARK  3 active torsions:
REMARK  status: ('A' for Active; 'I' for Inactive)
REMARK    1  A    between atoms: C_2  and  C_3 
REMARK       I    between atoms: C_2  and  N_32 
REMARK    2  A    between atoms: N_6  and  C_7 
REMARK    3  A    between atoms: N_11  and  C_12 
ROOT
HETATM    1  C   UNK N   1      40.640  38.358  50.425  0.00  0.00     0.126 A 
HETATM    2  N   UNK N   1      41.177  37.298  49.790  0.00  0.00    -0.292 N 
ATOM      3  HN  UNK N   1      40.693  36.708  49.114  1.00  0.00     0.187 HD
HETATM    4  N   UNK N   1      42.436  37.147  50.180  0.00  0.00    -0.285 N 
HETATM    5  C   UNK N   1      42.750  38.137  51.063  0.00  0.00     0.072 A 
HETATM    6  C   UNK N   1      41.602  38.914  51.253  0.00  0.00     0.019 A 
HETATM    7  C   UNK N   1      41.443  40.055  52.220  0.00  0.00     0.189 C 
HETATM    8  S   UNK N   1      42.477  39.631  53.634  0.00  0.00     0.180 S 
HETATM    9  O   UNK N   1      41.803  38.566  54.513  0.00  0.00    -0.222 OA
HETATM   10  O   UNK N   1      42.657  40.819  54.590  0.00  0.00    -0.222 OA
HETATM   11  C   UNK N   1      44.040  39.027  53.036  0.00  0.00     0.072 A 
HETATM   12  C   UNK N   1      45.221  39.241  53.754  0.00  0.00     0.024 A 
HETATM   13  C   UNK N   1      46.441  38.816  53.227  0.00  0.00     0.002 A 
HETATM   14  C   UNK N   1      46.483  38.195  51.978  0.00  0.00     0.001 A 
HETATM   15  C   UNK N   1      45.305  37.970  51.260  0.00  0.00     0.015 A 
HETATM   16  C   UNK N   1      44.057  38.360  51.791  0.00  0.00     0.014 A 
ENDROOT
BRANCH   4  17
HETATM   17  C   UNK N   1      43.226  35.973  49.769  0.00  0.00     0.110 C 
HETATM   18  C   UNK N   1      42.383  34.712  50.027  0.00  0.00     0.029 C 
HETATM   19  C   UNK N   1      42.940  33.426  49.438  0.00  0.00     0.032 C 
HETATM   20  C   UNK N   1      42.582  33.235  47.952  0.00  0.00     0.273 C 
HETATM   21  N   UNK N   1      43.277  34.139  47.007  0.00  0.00     0.093 N 
HETATM   22  C   UNK N   1      42.943  35.577  47.207  0.00  0.00     0.275 C 
HETATM   23  C   UNK N   1      43.777  36.163  48.344  0.00  0.00     0.057 C 
BRANCH  21  24
HETATM   24  C   UNK N   1      43.129  33.753  45.566  0.00  0.00     0.227 C 
HETATM   25  C   UNK N   1      43.926  32.438  45.294  0.00  0.00     0.062 C 
HETATM   26  C   UNK N   1      43.266  31.543  44.225  0.00  0.00     0.169 C 
HETATM   27  O   UNK N   1      42.796  32.315  43.146  0.00  0.00    -0.391 OA
HETATM   28  C   UNK N   1      41.743  33.193  43.549  0.00  0.00     0.169 C 
HETATM   29  C   UNK N   1      41.682  33.521  45.069  0.00  0.00     0.062 C 
ENDBRANCH  21  24
ENDBRANCH   4  17
BRANCH   1  30
HETATM   30  C   UNK N   1      39.251  38.855  50.199  0.00  0.00     0.272 C 
HETATM   31  O   UNK N   1      39.082  39.691  49.322  0.00  0.00    -0.266 OA
HETATM   32  N   UNK N   1      38.166  38.402  50.919  0.00  0.00    -0.343 N 
HETATM   33  C   UNK N   1      38.332  37.432  52.004  0.00  0.00     0.152 C 
HETATM   34  C   UNK N   1      36.817  38.696  50.422  0.00  0.00     0.152 C 
HETATM   35  C   UNK N   1      37.112  37.397  52.925  0.00  0.00     0.187 C 
HETATM   36  O   UNK N   1      35.931  37.259  52.164  0.00  0.00    -0.388 OA
HETATM   37  C   UNK N   1      35.729  38.476  51.479  0.00  0.00     0.187 C 
ENDBRANCH   1  30
TORSDOF 3
ENDMDL
MODEL 2
REMARK VINA RESULT:      -8.5      3.985      6.810
REMARK  3 active torsions:
REMARK  status: ('A' for Active; 'I' for Inactive)
REMARK    1  A    between atoms: C_2  and  C_3 
REMARK       I    between atoms: C_2  and  N_32 
REMARK    2  A    between atoms: N_6  and  C_7 
REMARK    3  A    between atoms: N_11  and  C_12 
ROOT
HETATM    1  C   UNK N   1      39.664  39.071  52.913  0.00  0.00     0.126 A 
HETATM    2  N   UNK N   1      40.734  38.881  52.116  0.00  0.00    -0.292 N 
ATOM      3  HN  UNK N   1      41.608  39.402  52.167  1.00  0.00     0.187 HD
HETATM    4  N   UNK N   1      40.469  37.905  51.257  0.00  0.00    -0.285 N 
HETATM    5  C   UNK N   1      39.220  37.419  51.506  0.00  0.00     0.072 A 
HETATM    6  C   UNK N   1      38.675  38.171  52.552  0.00  0.00     0.019 A 
HETATM    7  C   UNK N   1      37.278  38.065  53.099  0.00  0.00     0.189 C 
HETATM    8  S   UNK N   1      36.246  37.620  51.689  0.00  0.00     0.180 S 
HETATM    9  O   UNK N   1      35.986  38.837  50.788  0.00  0.00    -0.222 OA
HETATM   10  O   UNK N   1      34.837  37.190  52.122  0.00  0.00    -0.222 OA
HETATM   11  C   UNK N   1      37.067  36.341  50.764  0.00  0.00     0.072 A 
HETATM   12  C   UNK N   1      36.339  35.359  50.084  0.00  0.00     0.024 A 
HETATM   13  C   UNK N   1      37.010  34.329  49.424  0.00  0.00     0.002 A 
HETATM   14  C   UNK N   1      38.403  34.271  49.458  0.00  0.00     0.001 A 
HETATM   15  C   UNK N   1      39.137  35.255  50.127  0.00  0.00     0.015 A 
HETATM   16  C   UNK N   1      38.479  36.324  50.772  0.00  0.00     0.014 A 
ENDROOT
BRANCH   4  17
HETATM   17  C   UNK N   1      41.397  37.583  50.159  0.00  0.00     0.110 C 
HETATM   18  C   UNK N   1      41.801  38.899  49.469  0.00  0.00     0.029 C 
HETATM   19  C   UNK N   1      42.941  38.785  48.471  0.00  0.00     0.032 C 
HETATM   20  C   UNK N   1      44.333  38.826  49.132  0.00  0.00     0.273 C 
HETATM   21  N   UNK N   1      44.704  37.623  49.911  0.00  0.00     0.093 N 
HETATM   22  C   UNK N   1      43.825  37.385  51.090  0.00  0.00     0.275 C 
HETATM   23  C   UNK N   1      42.540  36.682  50.662  0.00  0.00     0.057 C 
BRANCH  21  24
HETATM   24  C   UNK N   1      46.149  37.568  50.304  0.00  0.00     0.227 C 
HETATM   25  C   UNK N   1      47.016  38.251  49.199  0.00  0.00     0.062 C 
HETATM   26  C   UNK N   1      48.262  38.964  49.765  0.00  0.00     0.169 C 
HETATM   27  O   UNK N   1      48.880  38.181  50.757  0.00  0.00    -0.391 OA
HETATM   28  C   UNK N   1      48.035  38.019  51.899  0.00  0.00     0.169 C 
HETATM   29  C   UNK N   1      46.515  38.238  51.650  0.00  0.00     0.062 C 
ENDBRANCH  21  24
ENDBRANCH   4  17
BRANCH   1  30
HETATM   30  C   UNK N   1      39.619  40.060  54.031  0.00  0.00     0.272 C 
HETATM   31  O   UNK N   1      39.548  41.246  53.738  0.00  0.00    -0.266 OA
HETATM   32  N   UNK N   1      39.637  39.692  55.359  0.00  0.00    -0.343 N 
HETATM   33  C   UNK N   1      39.762  38.287  55.751  0.00  0.00     0.152 C 
HETATM   34  C   UNK N   1      39.268  40.688  56.372  0.00  0.00     0.152 C 
HETATM   35  C   UNK N   1      40.188  38.141  57.212  0.00  0.00     0.187 C 
HETATM   36  O   UNK N   1      39.362  38.930  58.041  0.00  0.00    -0.388 OA
HETATM   37  C   UNK N   1      39.684  40.281  57.790  0.00  0.00     0.187 C 
ENDBRANCH   1  30
TORSDOF 3
ENDMDL
MODEL 3
REMARK VINA RESULT:      -8.4      6.611     11.052
REMARK  3 active torsions:
REMARK  status: ('A' for Active; 'I' for Inactive)
REMARK    1  A    between atoms: C_2  and  C_3 
REMARK       I    between atoms: C_2  and  N_32 
REMARK    2  A    between atoms: N_6  and  C_7 
REMARK    3  A    between atoms: N_11  and  C_12 
ROOT
HETATM    1  C   UNK N   1      41.496  32.559  43.707  0.00  0.00     0.126 A 
HETATM    2  N   UNK N   1      40.268  32.648  44.255  0.00  0.00    -0.292 N 
ATOM      3  HN  UNK N   1      39.988  32.237  45.146  1.00  0.00     0.187 HD
HETATM    4  N   UNK N   1      39.483  33.356  43.455  0.00  0.00    -0.285 N 
HETATM    5  C   UNK N   1      40.205  33.771  42.375  0.00  0.00     0.072 A 
HETATM    6  C   UNK N   1      41.496  33.248  42.505  0.00  0.00     0.019 A 
HETATM    7  C   UNK N   1      42.611  33.355  41.501  0.00  0.00     0.189 C 
HETATM    8  S   UNK N   1      41.804  33.346  39.890  0.00  0.00     0.180 S 
HETATM    9  O   UNK N   1      41.358  31.928  39.501  0.00  0.00    -0.222 OA
HETATM   10  O   UNK N   1      42.770  33.736  38.761  0.00  0.00    -0.222 OA
HETATM   11  C   UNK N   1      40.396  34.432  39.951  0.00  0.00     0.072 A 
HETATM   12  C   UNK N   1      39.984  35.147  38.823  0.00  0.00     0.024 A 
HETATM   13  C   UNK N   1      38.918  36.043  38.919  0.00  0.00     0.002 A 
HETATM   14  C   UNK N   1      38.279  36.237  40.144  0.00  0.00     0.001 A 
HETATM   15  C   UNK N   1      38.680  35.518  41.273  0.00  0.00     0.015 A 
HETATM   16  C   UNK N   1      39.732  34.581  41.189  0.00  0.00     0.014 A 
ENDROOT
BRANCH   4  17
HETATM   17  C   UNK N   1      38.039  33.486  43.722  0.00  0.00     0.110 C 
HETATM   18  C   UNK N   1      37.297  32.440  42.871  0.00  0.00     0.029 C 
HETATM   19  C   UNK N   1      35.824  32.263  43.198  0.00  0.00     0.032 C 
HETATM   20  C   UNK N   1      35.576  31.317  44.389  0.00  0.00     0.273 C 
HETATM   21  N   UNK N   1      35.956  31.851  45.717  0.00  0.00     0.093 N 
HETATM   22  C   UNK N   1      37.414  32.121  45.854  0.00  0.00     0.275 C 
HETATM   23  C   UNK N   1      37.765  33.472  45.237  0.00  0.00     0.057 C 
BRANCH  21  24
HETATM   24  C   UNK N   1      35.453  31.038  46.872  0.00  0.00     0.227 C 
HETATM   25  C   UNK N   1      35.861  29.544  46.673  0.00  0.00     0.062 C 
HETATM   26  C   UNK N   1      36.148  28.816  48.003  0.00  0.00     0.169 C 
HETATM   27  O   UNK N   1      35.194  29.158  48.978  0.00  0.00    -0.391 OA
HETATM   28  C   UNK N   1      35.275  30.542  49.327  0.00  0.00     0.169 C 
HETATM   29  C   UNK N   1      35.952  31.465  48.273  0.00  0.00     0.062 C 
ENDBRANCH  21  24
ENDBRANCH   4  17
BRANCH   1  30
HETATM   30  C   UNK N   1      42.653  31.871  44.352  0.00  0.00     0.272 C 
HETATM   31  O   UNK N   1      42.977  30.774  43.918  0.00  0.00    -0.266 OA
HETATM   32  N   UNK N   1      43.370  32.425  45.391  0.00  0.00    -0.343 N 
HETATM   33  C   UNK N   1      42.990  33.718  45.965  0.00  0.00     0.152 C 
HETATM   34  C   UNK N   1      44.668  31.839  45.744  0.00  0.00     0.152 C 
HETATM   35  C   UNK N   1      43.622  33.935  47.341  0.00  0.00     0.187 C 
HETATM   36  O   UNK N   1      45.009  33.681  47.285  0.00  0.00    -0.388 OA
HETATM   37  C   UNK N   1      45.174  32.289  47.119  0.00  0.00     0.187 C 
ENDBRANCH   1  30
TORSDOF 3
ENDMDL
MODEL 4
REMARK VINA RESULT:      -8.1      6.423     10.969
REMARK  3 active torsions:
REMARK  status: ('A' for Active; 'I' for Inactive)
REMARK    1  A    between atoms: C_2  and  C_3 
REMARK       I    between atoms: C_2  and  N_32 
REMARK    2  A    between atoms: N_6  and  C_7 
REMARK    3  A    between atoms: N_11  and  C_12 
ROOT
HETATM    1  C   UNK N   1      40.011  33.754  45.063  0.00  0.00     0.126 A 
HETATM    2  N   UNK N   1      38.759  33.322  45.314  0.00  0.00    -0.292 N 
ATOM      3  HN  UNK N   1      38.399  33.057  46.230  1.00  0.00     0.187 HD
HETATM    4  N   UNK N   1      38.071  33.299  44.180  0.00  0.00    -0.285 N 
HETATM    5  C   UNK N   1      38.864  33.751  43.168  0.00  0.00     0.072 A 
HETATM    6  C   UNK N   1      40.124  34.026  43.710  0.00  0.00     0.019 A 
HETATM    7  C   UNK N   1      41.353  34.448  42.951  0.00  0.00     0.189 C 
HETATM    8  S   UNK N   1      41.230  33.629  41.351  0.00  0.00     0.180 S 
HETATM    9  O   UNK N   1      41.599  32.141  41.460  0.00  0.00    -0.222 OA
HETATM   10  O   UNK N   1      42.255  34.176  40.346  0.00  0.00    -0.222 OA
HETATM   11  C   UNK N   1      39.565  33.801  40.748  0.00  0.00     0.072 A 
HETATM   12  C   UNK N   1      39.298  33.897  39.379  0.00  0.00     0.024 A 
HETATM   13  C   UNK N   1      37.989  34.101  38.940  0.00  0.00     0.002 A 
HETATM   14  C   UNK N   1      36.953  34.225  39.867  0.00  0.00     0.001 A 
HETATM   15  C   UNK N   1      37.214  34.120  41.236  0.00  0.00     0.015 A 
HETATM   16  C   UNK N   1      38.525  33.879  41.700  0.00  0.00     0.014 A 
ENDROOT
BRANCH   4  17
HETATM   17  C   UNK N   1      36.717  32.720  44.122  0.00  0.00     0.110 C 
HETATM   18  C   UNK N   1      36.842  31.246  43.695  0.00  0.00     0.029 C 
HETATM   19  C   UNK N   1      35.570  30.424  43.818  0.00  0.00     0.032 C 
HETATM   20  C   UNK N   1      35.332  29.883  45.240  0.00  0.00     0.273 C 
HETATM   21  N   UNK N   1      34.948  30.894  46.251  0.00  0.00     0.093 N 
HETATM   22  C   UNK N   1      36.001  31.918  46.499  0.00  0.00     0.275 C 
HETATM   23  C   UNK N   1      35.950  33.003  45.426  0.00  0.00     0.057 C 
BRANCH  21  24
HETATM   24  C   UNK N   1      34.454  30.315  47.543  0.00  0.00     0.227 C 
HETATM   25  C   UNK N   1      34.390  28.759  47.425  0.00  0.00     0.062 C 
HETATM   26  C   UNK N   1      34.696  28.041  48.756  0.00  0.00     0.169 C 
HETATM   27  O   UNK N   1      34.065  28.690  49.832  0.00  0.00    -0.391 OA
HETATM   28  C   UNK N   1      34.587  30.005  50.031  0.00  0.00     0.169 C 
HETATM   29  C   UNK N   1      35.294  30.643  48.800  0.00  0.00     0.062 C 
ENDBRANCH  21  24
ENDBRANCH   4  17
BRANCH   1  30
HETATM   30  C   UNK N   1      41.055  33.950  46.113  0.00  0.00     0.272 C 
HETATM   31  O   UNK N   1      40.890  34.857  46.916  0.00  0.00    -0.266 OA
HETATM   32  N   UNK N   1      42.172  33.149  46.218  0.00  0.00    -0.343 N 
HETATM   33  C   UNK N   1      42.427  32.078  45.252  0.00  0.00     0.152 C 
HETATM   34  C   UNK N   1      42.967  33.205  47.450  0.00  0.00     0.152 C 
HETATM   35  C   UNK N   1      43.884  31.614  45.289  0.00  0.00     0.187 C 
HETATM   36  O   UNK N   1      44.271  31.337  46.617  0.00  0.00    -0.388 OA
HETATM   37  C   UNK N   1      44.354  32.571  47.297  0.00  0.00     0.187 C 
ENDBRANCH   1  30
TORSDOF 3
ENDMDL
MODEL 5
REMARK VINA RESULT:      -8.0      3.064      7.786
REMARK  3 active torsions:
REMARK  status: ('A' for Active; 'I' for Inactive)
REMARK    1  A    between atoms: C_2  and  C_3 
REMARK       I    between atoms: C_2  and  N_32 
REMARK    2  A    between atoms: N_6  and  C_7 
REMARK    3  A    between atoms: N_11  and  C_12 
ROOT
HETATM    1  C   UNK N   1      39.552  35.159  49.008  0.00  0.00     0.126 A 
HETATM    2  N   UNK N   1      40.614  35.653  49.675  0.00  0.00    -0.292 N 
ATOM      3  HN  UNK N   1      40.568  36.309  50.454  1.00  0.00     0.187 HD
HETATM    4  N   UNK N   1      41.727  35.148  49.159  0.00  0.00    -0.285 N 
HETATM    5  C   UNK N   1      41.400  34.283  48.157  0.00  0.00     0.072 A 
HETATM    6  C   UNK N   1      40.007  34.293  48.027  0.00  0.00     0.019 A 
HETATM    7  C   UNK N   1      39.200  33.573  46.982  0.00  0.00     0.189 C 
HETATM    8  S   UNK N   1      40.233  33.561  45.505  0.00  0.00     0.180 S 
HETATM    9  O   UNK N   1      40.226  34.932  44.813  0.00  0.00    -0.222 OA
HETATM   10  O   UNK N   1      39.682  32.616  44.427  0.00  0.00    -0.222 OA
HETATM   11  C   UNK N   1      41.892  33.124  45.974  0.00  0.00     0.072 A 
HETATM   12  C   UNK N   1      42.723  32.405  45.109  0.00  0.00     0.024 A 
HETATM   13  C   UNK N   1      43.996  32.018  45.531  0.00  0.00     0.002 A 
HETATM   14  C   UNK N   1      44.429  32.331  46.819  0.00  0.00     0.001 A 
HETATM   15  C   UNK N   1      43.607  33.058  47.685  0.00  0.00     0.015 A 
HETATM   16  C   UNK N   1      42.330  33.490  47.266  0.00  0.00     0.014 A 
ENDROOT
BRANCH   4  17
HETATM   17  C   UNK N   1      43.052  35.630  49.586  0.00  0.00     0.110 C 
HETATM   18  C   UNK N   1      43.448  36.811  48.682  0.00  0.00     0.029 C 
HETATM   19  C   UNK N   1      44.673  37.590  49.131  0.00  0.00     0.032 C 
HETATM   20  C   UNK N   1      44.360  38.651  50.203  0.00  0.00     0.273 C 
HETATM   21  N   UNK N   1      44.027  38.120  51.545  0.00  0.00     0.093 N 
HETATM   22  C   UNK N   1      42.783  37.302  51.569  0.00  0.00     0.275 C 
HETATM   23  C   UNK N   1      43.075  35.877  51.105  0.00  0.00     0.057 C 
BRANCH  21  24
HETATM   24  C   UNK N   1      44.002  39.159  52.627  0.00  0.00     0.227 C 
HETATM   25  C   UNK N   1      42.648  39.071  53.401  0.00  0.00     0.062 C 
HETATM   26  C   UNK N   1      42.785  39.429  54.895  0.00  0.00     0.169 C 
HETATM   27  O   UNK N   1      43.621  40.547  55.069  0.00  0.00    -0.391 OA
HETATM   28  C   UNK N   1      44.963  40.265  54.665  0.00  0.00     0.169 C 
HETATM   29  C   UNK N   1      45.134  39.075  53.677  0.00  0.00     0.062 C 
ENDBRANCH  21  24
ENDBRANCH   4  17
BRANCH   1  30
HETATM   30  C   UNK N   1      38.132  35.474  49.344  0.00  0.00     0.272 C 
HETATM   31  O   UNK N   1      37.664  36.520  48.916  0.00  0.00    -0.266 OA
HETATM   32  N   UNK N   1      37.335  34.635  50.094  0.00  0.00    -0.343 N 
HETATM   33  C   UNK N   1      37.869  33.393  50.659  0.00  0.00     0.152 C 
HETATM   34  C   UNK N   1      35.885  34.860  50.104  0.00  0.00     0.152 C 
HETATM   35  C   UNK N   1      36.980  32.851  51.779  0.00  0.00     0.187 C 
HETATM   36  O   UNK N   1      35.637  32.793  51.348  0.00  0.00    -0.388 OA
HETATM   37  C   UNK N   1      35.173  34.121  51.242  0.00  0.00     0.187 C 
ENDBRANCH   1  30
TORSDOF 3
ENDMDL
MODEL 6
REMARK VINA RESULT:      -7.9      2.224      3.239
REMARK  3 active torsions:
REMARK  status: ('A' for Active; 'I' for Inactive)
REMARK    1  A    between atoms: C_2  and  C_3 
REMARK       I    between atoms: C_2  and  N_32 
REMARK    2  A    between atoms: N_6  and  C_7 
REMARK    3  A    between atoms: N_11  and  C_12 
ROOT
HETATM    1  C   UNK N   1      38.779  38.725  52.521  0.00  0.00     0.126 A 
HETATM    2  N   UNK N   1      39.638  38.541  51.499  0.00  0.00    -0.292 N 
ATOM      3  HN  UNK N   1      39.391  38.178  50.579  1.00  0.00     0.187 HD
HETATM    4  N   UNK N   1      40.854  38.909  51.879  0.00  0.00    -0.285 N 
HETATM    5  C   UNK N   1      40.799  39.373  53.160  0.00  0.00     0.072 A 
HETATM    6  C   UNK N   1      39.477  39.242  53.600  0.00  0.00     0.019 A 
HETATM    7  C   UNK N   1      38.961  39.528  54.984  0.00  0.00     0.189 C 
HETATM    8  S   UNK N   1      40.317  39.109  56.095  0.00  0.00     0.180 S 
HETATM    9  O   UNK N   1      40.440  37.587  56.270  0.00  0.00    -0.222 OA
HETATM   10  O   UNK N   1      40.063  39.611  57.524  0.00  0.00    -0.222 OA
HETATM   11  C   UNK N   1      41.827  39.769  55.426  0.00  0.00     0.072 A 
HETATM   12  C   UNK N   1      42.859  40.207  56.263  0.00  0.00     0.024 A 
HETATM   13  C   UNK N   1      44.003  40.783  55.711  0.00  0.00     0.002 A 
HETATM   14  C   UNK N   1      44.109  40.939  54.329  0.00  0.00     0.001 A 
HETATM   15  C   UNK N   1      43.085  40.495  53.486  0.00  0.00     0.015 A 
HETATM   16  C   UNK N   1      41.934  39.877  54.022  0.00  0.00     0.014 A 
ENDROOT
BRANCH   4  17
HETATM   17  C   UNK N   1      42.027  38.670  51.020  0.00  0.00     0.110 C 
HETATM   18  C   UNK N   1      42.905  37.599  51.690  0.00  0.00     0.029 C 
HETATM   19  C   UNK N   1      44.031  37.051  50.829  0.00  0.00     0.032 C 
HETATM   20  C   UNK N   1      43.575  35.931  49.875  0.00  0.00     0.273 C 
HETATM   21  N   UNK N   1      42.727  36.365  48.742  0.00  0.00     0.093 N 
HETATM   22  C   UNK N   1      41.419  36.940  49.165  0.00  0.00     0.275 C 
HETATM   23  C   UNK N   1      41.588  38.403  49.568  0.00  0.00     0.057 C 
BRANCH  21  24
HETATM   24  C   UNK N   1      42.531  35.319  47.685  0.00  0.00     0.227 C 
HETATM   25  C   UNK N   1      43.612  34.204  47.850  0.00  0.00     0.062 C 
HETATM   26  C   UNK N   1      43.098  32.804  47.452  0.00  0.00     0.169 C 
HETATM   27  O   UNK N   1      42.330  32.868  46.276  0.00  0.00    -0.391 OA
HETATM   28  C   UNK N   1      41.132  33.624  46.472  0.00  0.00     0.169 C 
HETATM   29  C   UNK N   1      41.152  34.619  47.668  0.00  0.00     0.062 C 
ENDBRANCH  21  24
ENDBRANCH   4  17
BRANCH   1  30
HETATM   30  C   UNK N   1      37.312  38.460  52.440  0.00  0.00     0.272 C 
HETATM   31  O   UNK N   1      36.578  39.404  52.178  0.00  0.00    -0.266 OA
HETATM   32  N   UNK N   1      36.764  37.210  52.630  0.00  0.00    -0.343 N 
HETATM   33  C   UNK N   1      37.604  36.064  52.984  0.00  0.00     0.152 C 
HETATM   34  C   UNK N   1      35.374  36.979  52.219  0.00  0.00     0.152 C 
HETATM   35  C   UNK N   1      36.779  34.911  53.558  0.00  0.00     0.187 C 
HETATM   36  O   UNK N   1      35.689  34.624  52.708  0.00  0.00    -0.388 OA
HETATM   37  C   UNK N   1      34.779  35.698  52.815  0.00  0.00     0.187 C 
ENDBRANCH   1  30
TORSDOF 3
ENDMDL
MODEL 7
REMARK VINA RESULT:      -7.8      3.831      8.038
REMARK  3 active torsions:
REMARK  status: ('A' for Active; 'I' for Inactive)
REMARK    1  A    between atoms: C_2  and  C_3 
REMARK       I    between atoms: C_2  and  N_32 
REMARK    2  A    between atoms: N_6  and  C_7 
REMARK    3  A    between atoms: N_11  and  C_12 
ROOT
HETATM    1  C   UNK N   1      41.447  37.129  50.611  0.00  0.00     0.126 A 
HETATM    2  N   UNK N   1      40.981  37.973  51.553  0.00  0.00    -0.292 N 
ATOM      3  HN  UNK N   1      39.998  38.185  51.721  1.00  0.00     0.187 HD
HETATM    4  N   UNK N   1      42.004  38.481  52.228  0.00  0.00    -0.285 N 
HETATM    5  C   UNK N   1      43.163  37.945  51.750  0.00  0.00     0.072 A 
HETATM    6  C   UNK N   1      42.829  37.090  50.694  0.00  0.00     0.019 A 
HETATM    7  C   UNK N   1      43.789  36.359  49.796  0.00  0.00     0.189 C 
HETATM    8  S   UNK N   1      45.223  37.440  49.649  0.00  0.00     0.180 S 
HETATM    9  O   UNK N   1      44.943  38.604  48.687  0.00  0.00    -0.222 OA
HETATM   10  O   UNK N   1      46.418  36.723  49.001  0.00  0.00    -0.222 OA
HETATM   11  C   UNK N   1      45.632  38.067  51.263  0.00  0.00     0.072 A 
HETATM   12  C   UNK N   1      46.956  38.342  51.618  0.00  0.00     0.024 A 
HETATM   13  C   UNK N   1      47.254  38.768  52.913  0.00  0.00     0.002 A 
HETATM   14  C   UNK N   1      46.233  38.901  53.855  0.00  0.00     0.001 A 
HETATM   15  C   UNK N   1      44.907  38.637  53.503  0.00  0.00     0.015 A 
HETATM   16  C   UNK N   1      44.580  38.239  52.189  0.00  0.00     0.014 A 
ENDROOT
BRANCH   4  17
HETATM   17  C   UNK N   1      41.807  39.556  53.216  0.00  0.00     0.110 C 
HETATM   18  C   UNK N   1      40.413  40.167  52.991  0.00  0.00     0.029 C 
HETATM   19  C   UNK N   1      39.940  41.124  54.073  0.00  0.00     0.032 C 
HETATM   20  C   UNK N   1      39.315  40.409  55.285  0.00  0.00     0.273 C 
HETATM   21  N   UNK N   1      40.266  39.672  56.150  0.00  0.00     0.093 N 
HETATM   22  C   UNK N   1      40.944  38.540  55.458  0.00  0.00     0.275 C 
HETATM   23  C   UNK N   1      42.124  39.051  54.636  0.00  0.00     0.057 C 
BRANCH  21  24
HETATM   24  C   UNK N   1      39.686  39.226  57.459  0.00  0.00     0.227 C 
HETATM   25  C   UNK N   1      39.687  37.665  57.523  0.00  0.00     0.062 C 
HETATM   26  C   UNK N   1      39.905  37.121  58.950  0.00  0.00     0.169 C 
HETATM   27  O   UNK N   1      39.163  37.861  59.888  0.00  0.00    -0.391 OA
HETATM   28  C   UNK N   1      39.619  39.214  59.968  0.00  0.00     0.169 C 
HETATM   29  C   UNK N   1      40.404  39.735  58.730  0.00  0.00     0.062 C 
ENDBRANCH  21  24
ENDBRANCH   4  17
BRANCH   1  30
HETATM   30  C   UNK N   1      40.576  36.338  49.691  0.00  0.00     0.272 C 
HETATM   31  O   UNK N   1      40.968  36.168  48.545  0.00  0.00    -0.266 OA
HETATM   32  N   UNK N   1      39.375  35.788  50.084  0.00  0.00    -0.343 N 
HETATM   33  C   UNK N   1      38.852  36.002  51.435  0.00  0.00     0.152 C 
HETATM   34  C   UNK N   1      38.751  34.772  49.228  0.00  0.00     0.152 C 
HETATM   35  C   UNK N   1      37.359  35.687  51.523  0.00  0.00     0.187 C 
HETATM   36  O   UNK N   1      37.097  34.416  50.967  0.00  0.00    -0.388 OA
HETATM   37  C   UNK N   1      37.277  34.524  49.571  0.00  0.00     0.187 C 
ENDBRANCH   1  30
TORSDOF 3
ENDMDL
MODEL 8
REMARK VINA RESULT:      -7.8      3.968      8.824
REMARK  3 active torsions:
REMARK  status: ('A' for Active; 'I' for Inactive)
REMARK    1  A    between atoms: C_2  and  C_3 
REMARK       I    between atoms: C_2  and  N_32 
REMARK    2  A    between atoms: N_6  and  C_7 
REMARK    3  A    between atoms: N_11  and  C_12 
ROOT
HETATM    1  C   UNK N   1      39.031  33.507  45.658  0.00  0.00     0.126 A 
HETATM    2  N   UNK N   1      39.231  33.989  46.900  0.00  0.00    -0.292 N 
ATOM      3  HN  UNK N   1      38.510  34.387  47.502  1.00  0.00     0.187 HD
HETATM    4  N   UNK N   1      40.513  33.863  47.217  0.00  0.00    -0.285 N 
HETATM    5  C   UNK N   1      41.169  33.260  46.185  0.00  0.00     0.072 A 
HETATM    6  C   UNK N   1      40.239  33.044  45.162  0.00  0.00     0.019 A 
HETATM    7  C   UNK N   1      40.527  32.500  43.790  0.00  0.00     0.189 C 
HETATM    8  S   UNK N   1      42.182  33.087  43.382  0.00  0.00     0.180 S 
HETATM    9  O   UNK N   1      42.160  34.569  42.977  0.00  0.00    -0.222 OA
HETATM   10  O   UNK N   1      42.748  32.387  42.137  0.00  0.00    -0.222 OA
HETATM   11  C   UNK N   1      43.233  32.857  44.798  0.00  0.00     0.072 A 
HETATM   12  C   UNK N   1      44.594  32.572  44.650  0.00  0.00     0.024 A 
HETATM   13  C   UNK N   1      45.380  32.329  45.777  0.00  0.00     0.002 A 
HETATM   14  C   UNK N   1      44.803  32.354  47.047  0.00  0.00     0.001 A 
HETATM   15  C   UNK N   1      43.445  32.648  47.202  0.00  0.00     0.015 A 
HETATM   16  C   UNK N   1      42.641  32.931  46.078  0.00  0.00     0.014 A 
ENDROOT
BRANCH   4  17
HETATM   17  C   UNK N   1      41.054  34.449  48.456  0.00  0.00     0.110 C 
HETATM   18  C   UNK N   1      41.870  35.699  48.080  0.00  0.00     0.029 C 
HETATM   19  C   UNK N   1      42.300  36.570  49.248  0.00  0.00     0.032 C 
HETATM   20  C   UNK N   1      41.205  37.552  49.708  0.00  0.00     0.273 C 
HETATM   21  N   UNK N   1      40.051  36.938  50.403  0.00  0.00     0.093 N 
HETATM   22  C   UNK N   1      39.267  36.006  49.545  0.00  0.00     0.275 C 
HETATM   23  C   UNK N   1      39.938  34.635  49.500  0.00  0.00     0.057 C 
BRANCH  21  24
HETATM   24  C   UNK N   1      39.147  37.925  51.080  0.00  0.00     0.227 C 
HETATM   25  C   UNK N   1      38.010  38.350  50.097  0.00  0.00     0.062 C 
HETATM   26  C   UNK N   1      36.676  38.648  50.811  0.00  0.00     0.169 C 
HETATM   27  O   UNK N   1      36.892  39.382  51.992  0.00  0.00    -0.391 OA
HETATM   28  C   UNK N   1      37.627  38.621  52.953  0.00  0.00     0.169 C 
HETATM   29  C   UNK N   1      38.466  37.441  52.382  0.00  0.00     0.062 C 
ENDBRANCH  21  24
ENDBRANCH   4  17
BRANCH   1  30
HETATM   30  C   UNK N   1      37.698  33.445  44.988  0.00  0.00     0.272 C 
HETATM   31  O   UNK N   1      37.373  34.390  44.282  0.00  0.00    -0.266 OA
HETATM   32  N   UNK N   1      36.841  32.373  45.121  0.00  0.00    -0.343 N 
HETATM   33  C   UNK N   1      37.177  31.242  45.989  0.00  0.00     0.152 C 
HETATM   34  C   UNK N   1      35.715  32.251  44.188  0.00  0.00     0.152 C 
HETATM   35  C   UNK N   1      35.945  30.400  46.324  0.00  0.00     0.187 C 
HETATM   36  O   UNK N   1      35.246  30.071  45.143  0.00  0.00    -0.388 OA
HETATM   37  C   UNK N   1      34.650  31.257  44.664  0.00  0.00     0.187 C 
ENDBRANCH   1  30
TORSDOF 3
ENDMDL
MODEL 9
REMARK VINA RESULT:      -7.6      4.527      7.500
REMARK  3 active torsions:
REMARK  status: ('A' for Active; 'I' for Inactive)
REMARK    1  A    between atoms: C_2  and  C_3 
REMARK       I    between atoms: C_2  and  N_32 
REMARK    2  A    between atoms: N_6  and  C_7 
REMARK    3  A    between atoms: N_11  and  C_12 
ROOT
HETATM    1  C   UNK N   1      39.023  37.773  56.361  0.00  0.00     0.126 A 
HETATM    2  N   UNK N   1      40.023  38.196  55.564  0.00  0.00    -0.292 N 
ATOM      3  HN  UNK N   1      40.795  37.620  55.230  1.00  0.00     0.187 HD
HETATM    4  N   UNK N   1      39.844  39.479  55.281  0.00  0.00    -0.285 N 
HETATM    5  C   UNK N   1      38.692  39.909  55.872  0.00  0.00     0.072 A 
HETATM    6  C   UNK N   1      38.161  38.833  56.591  0.00  0.00     0.019 A 
HETATM    7  C   UNK N   1      36.952  38.865  57.487  0.00  0.00     0.189 C 
HETATM    8  S   UNK N   1      36.937  40.516  58.209  0.00  0.00     0.180 S 
HETATM    9  O   UNK N   1      37.983  40.641  59.328  0.00  0.00    -0.222 OA
HETATM   10  O   UNK N   1      35.612  40.816  58.927  0.00  0.00    -0.222 OA
HETATM   11  C   UNK N   1      37.271  41.702  56.927  0.00  0.00     0.072 A 
HETATM   12  C   UNK N   1      36.708  42.981  56.959  0.00  0.00     0.024 A 
HETATM   13  C   UNK N   1      36.933  43.867  55.905  0.00  0.00     0.002 A 
HETATM   14  C   UNK N   1      37.704  43.469  54.812  0.00  0.00     0.001 A 
HETATM   15  C   UNK N   1      38.278  42.194  54.778  0.00  0.00     0.015 A 
HETATM   16  C   UNK N   1      38.091  41.296  55.851  0.00  0.00     0.014 A 
ENDROOT
BRANCH   4  17
HETATM   17  C   UNK N   1      40.868  40.251  54.555  0.00  0.00     0.110 C 
HETATM   18  C   UNK N   1      42.207  40.090  55.297  0.00  0.00     0.029 C 
HETATM   19  C   UNK N   1      43.426  40.617  54.558  0.00  0.00     0.032 C 
HETATM   20  C   UNK N   1      43.993  39.616  53.533  0.00  0.00     0.273 C 
HETATM   21  N   UNK N   1      43.168  39.409  52.321  0.00  0.00     0.093 N 
HETATM   22  C   UNK N   1      41.833  38.814  52.605  0.00  0.00     0.275 C 
HETATM   23  C   UNK N   1      40.854  39.894  53.058  0.00  0.00     0.057 C 
BRANCH  21  24
HETATM   24  C   UNK N   1      43.864  38.658  51.225  0.00  0.00     0.227 C 
HETATM   25  C   UNK N   1      43.604  37.128  51.397  0.00  0.00     0.062 C 
HETATM   26  C   UNK N   1      43.526  36.376  50.052  0.00  0.00     0.169 C 
HETATM   27  O   UNK N   1      44.526  36.822  49.169  0.00  0.00    -0.391 OA
HETATM   28  C   UNK N   1      44.329  38.190  48.803  0.00  0.00     0.169 C 
HETATM   29  C   UNK N   1      43.458  39.031  49.780  0.00  0.00     0.062 C 
ENDBRANCH  21  24
ENDBRANCH   4  17
BRANCH   1  30
HETATM   30  C   UNK N   1      38.873  36.369  56.845  0.00  0.00     0.272 C 
HETATM   31  O   UNK N   1      39.293  36.105  57.963  0.00  0.00    -0.266 OA
HETATM   32  N   UNK N   1      38.275  35.378  56.096  0.00  0.00    -0.343 N 
HETATM   33  C   UNK N   1      37.797  35.643  54.737  0.00  0.00     0.152 C 
HETATM   34  C   UNK N   1      37.885  34.129  56.761  0.00  0.00     0.152 C 
HETATM   35  C   UNK N   1      37.575  34.350  53.951  0.00  0.00     0.187 C 
HETATM   36  O   UNK N   1      36.790  33.452  54.705  0.00  0.00    -0.388 OA
HETATM   37  C   UNK N   1      37.588  32.993  55.775  0.00  0.00     0.187 C 
ENDBRANCH   1  30
TORSDOF 3
ENDMDL
