MODEL 1
REMARK VINA RESULT:      -9.1      0.000      0.000
REMARK  5 active torsions:
REMARK  status: ('A' for Active; 'I' for Inactive)
REMARK    1  A    between atoms: C_2  and  C_3 
REMARK       I    between atoms: C_2  and  N_34 
REMARK    2  A    between atoms: N_6  and  C_7 
REMARK    3  A    between atoms: N_11  and  C_12 
REMARK    4  A    between atoms: C_12  and  C_13 
REMARK    5  A    between atoms: C_13  and  N_14 
ROOT
HETATM    1  C   UNK N   1      40.288  38.146  49.954  0.00  0.00     0.126 A 
HETATM    2  N   UNK N   1      40.763  37.160  49.177  0.00  0.00    -0.292 N 
ATOM      3  HN  UNK N   1      40.223  36.651  48.478  1.00  0.00     0.187 HD
HETATM    4  N   UNK N   1      42.041  36.948  49.457  0.00  0.00    -0.284 N 
HETATM    5  C   UNK N   1      42.449  37.841  50.408  0.00  0.00     0.072 A 
HETATM    6  C   UNK N   1      41.319  38.598  50.772  0.00  0.00     0.019 A 
HETATM    7  C   UNK N   1      41.199  39.640  51.854  0.00  0.00     0.189 C 
HETATM    8  S   UNK N   1      42.610  39.485  52.949  0.00  0.00     0.183 S 
HETATM    9  O   UNK N   1      42.205  38.672  54.188  0.00  0.00    -0.222 OA
HETATM   10  O   UNK N   1      42.970  40.845  53.564  0.00  0.00    -0.222 OA
HETATM   11  C   UNK N   1      44.022  38.727  52.201  0.00  0.00     0.110 A 
HETATM   12  C   UNK N   1      45.291  38.872  52.782  0.00  0.00     0.138 A 
HETATM   13  F   UNK N   1      45.443  39.555  53.945  0.00  0.00    -0.204 F 
HETATM   14  C   UNK N   1      46.408  38.322  52.160  0.00  0.00     0.044 A 
HETATM   15  C   UNK N   1      46.268  37.650  50.951  0.00  0.00     0.004 A 
HETATM   16  C   UNK N   1      45.007  37.493  50.369  0.00  0.00     0.015 A 
HETATM   17  C   UNK N   1      43.844  37.999  51.001  0.00  0.00     0.018 A 
ENDROOT
BRANCH   4  18
HETATM   18  C   UNK N   1      42.729  35.776  48.891  0.00  0.00     0.137 C 
HETATM   19  C   UNK N   1      42.315  34.498  49.634  0.00  0.00     0.031 C 
HETATM   20  C   UNK N   1      43.138  33.296  49.125  0.00  0.00     0.032 C 
HETATM   21  C   UNK N   1      43.597  33.482  47.664  0.00  0.00     0.272 C 
HETATM   22  N   UNK N   1      42.565  34.198  46.895  0.00  0.00     0.092 N 
HETATM   23  C   UNK N   1      42.364  35.592  47.391  0.00  0.00     0.299 C 
BRANCH  22  24
HETATM   24  C   UNK N   1      42.829  34.176  45.443  0.00  0.00     0.302 C 
BRANCH  24  25
HETATM   25  C   UNK N   1      41.537  33.893  44.664  0.00  0.00     0.303 C 
BRANCH  25  26
HETATM   26  N   UNK N   1      41.435  32.454  44.351  0.00  0.00     0.102 N 
HETATM   27  C   UNK N   1      40.885  32.220  43.008  0.00  0.00     0.353 A 
HETATM   28  C   UNK N   1      42.204  31.688  42.478  0.00  0.00     0.295 A 
HETATM   29  F   UNK N   1      42.811  32.556  41.588  0.00  0.00    -0.203 F 
HETATM   30  F   UNK N   1      42.158  30.369  42.062  0.00  0.00    -0.203 F 
HETATM   31  C   UNK N   1      42.707  31.867  43.898  0.00  0.00     0.353 A 
ENDBRANCH  25  26
ENDBRANCH  24  25
ENDBRANCH  22  24
ENDBRANCH   4  18
BRANCH   1  32
HETATM   32  C   UNK N   1      38.840  38.546  50.013  0.00  0.00     0.272 C 
HETATM   33  O   UNK N   1      38.472  39.454  49.280  0.00  0.00    -0.266 OA
HETATM   34  N   UNK N   1      37.925  37.984  50.883  0.00  0.00    -0.343 N 
HETATM   35  C   UNK N   1      38.294  36.869  51.762  0.00  0.00     0.152 C 
HETATM   36  C   UNK N   1      36.623  38.651  51.035  0.00  0.00     0.152 C 
HETATM   37  C   UNK N   1      37.108  36.298  52.539  0.00  0.00     0.187 C 
HETATM   38  O   UNK N   1      36.324  37.348  53.063  0.00  0.00    -0.388 OA
HETATM   39  C   UNK N   1      35.645  37.926  51.969  0.00  0.00     0.187 C 
ENDBRANCH   1  32
TORSDOF 5
ENDMDL
MODEL 2
REMARK VINA RESULT:      -8.9      3.245      8.117
REMARK  5 active torsions:
REMARK  status: ('A' for Active; 'I' for Inactive)
REMARK    1  A    between atoms: C_2  and  C_3 
REMARK       I    between atoms: C_2  and  N_34 
REMARK    2  A    between atoms: N_6  and  C_7 
REMARK    3  A    between atoms: N_11  and  C_12 
REMARK    4  A    between atoms: C_12  and  C_13 
REMARK    5  A    between atoms: C_13  and  N_14 
ROOT
HETATM    1  C   UNK N   1      40.672  35.653  49.456  0.00  0.00     0.126 A 
HETATM    2  N   UNK N   1      41.702  36.170  50.144  0.00  0.00    -0.292 N 
ATOM      3  HN  UNK N   1      41.619  36.745  50.982  1.00  0.00     0.187 HD
HETATM    4  N   UNK N   1      42.843  35.821  49.568  0.00  0.00    -0.284 N 
HETATM    5  C   UNK N   1      42.580  35.012  48.498  0.00  0.00     0.072 A 
HETATM    6  C   UNK N   1      41.179  34.925  48.384  0.00  0.00     0.019 A 
HETATM    7  C   UNK N   1      40.367  34.248  47.311  0.00  0.00     0.189 C 
HETATM    8  S   UNK N   1      41.438  33.924  45.911  0.00  0.00     0.183 S 
HETATM    9  O   UNK N   1      41.246  35.025  44.857  0.00  0.00    -0.222 OA
HETATM   10  O   UNK N   1      40.973  32.673  45.151  0.00  0.00    -0.222 OA
HETATM   11  C   UNK N   1      43.154  33.819  46.326  0.00  0.00     0.110 A 
HETATM   12  C   UNK N   1      44.058  33.211  45.441  0.00  0.00     0.138 A 
HETATM   13  F   UNK N   1      43.636  32.738  44.241  0.00  0.00    -0.204 F 
HETATM   14  C   UNK N   1      45.397  33.081  45.795  0.00  0.00     0.044 A 
HETATM   15  C   UNK N   1      45.834  33.531  47.037  0.00  0.00     0.004 A 
HETATM   16  C   UNK N   1      44.942  34.145  47.920  0.00  0.00     0.015 A 
HETATM   17  C   UNK N   1      43.583  34.337  47.570  0.00  0.00     0.018 A 
ENDROOT
BRANCH   4  18
HETATM   18  C   UNK N   1      44.105  36.438  50.009  0.00  0.00     0.137 C 
HETATM   19  C   UNK N   1      44.510  37.573  49.059  0.00  0.00     0.031 C 
HETATM   20  C   UNK N   1      45.897  38.127  49.449  0.00  0.00     0.032 C 
HETATM   21  C   UNK N   1      46.191  37.948  50.954  0.00  0.00     0.272 C 
HETATM   22  N   UNK N   1      44.954  38.112  51.736  0.00  0.00     0.092 N 
HETATM   23  C   UNK N   1      43.955  37.044  51.434  0.00  0.00     0.299 C 
BRANCH  22  24
HETATM   24  C   UNK N   1      45.214  38.211  53.186  0.00  0.00     0.302 C 
BRANCH  24  25
HETATM   25  C   UNK N   1      45.351  39.680  53.610  0.00  0.00     0.303 C 
BRANCH  25  26
HETATM   26  N   UNK N   1      44.259  40.049  54.530  0.00  0.00     0.102 N 
HETATM   27  C   UNK N   1      43.492  41.205  54.040  0.00  0.00     0.353 A 
HETATM   28  C   UNK N   1      42.256  40.366  53.773  0.00  0.00     0.295 A 
HETATM   29  F   UNK N   1      42.006  40.197  52.422  0.00  0.00    -0.203 F 
HETATM   30  F   UNK N   1      41.152  40.727  54.526  0.00  0.00    -0.203 F 
HETATM   31  C   UNK N   1      43.054  39.220  54.363  0.00  0.00     0.353 A 
ENDBRANCH  25  26
ENDBRANCH  24  25
ENDBRANCH  22  24
ENDBRANCH   4  18
BRANCH   1  32
HETATM   32  C   UNK N   1      39.230  35.972  49.736  0.00  0.00     0.272 C 
HETATM   33  O   UNK N   1      38.506  35.054  50.097  0.00  0.00    -0.266 OA
HETATM   34  N   UNK N   1      38.674  37.225  49.557  0.00  0.00    -0.343 N 
HETATM   35  C   UNK N   1      39.495  38.374  49.162  0.00  0.00     0.152 C 
HETATM   36  C   UNK N   1      37.208  37.337  49.597  0.00  0.00     0.152 C 
HETATM   37  C   UNK N   1      38.722  39.693  49.158  0.00  0.00     0.187 C 
HETATM   38  O   UNK N   1      37.463  39.511  48.546  0.00  0.00    -0.388 OA
HETATM   39  C   UNK N   1      36.678  38.770  49.455  0.00  0.00     0.187 C 
ENDBRANCH   1  32
TORSDOF 5
ENDMDL
MODEL 3
REMARK VINA RESULT:      -8.7      3.398      8.088
REMARK  5 active torsions:
REMARK  status: ('A' for Active; 'I' for Inactive)
REMARK    1  A    between atoms: C_2  and  C_3 
REMARK       I    between atoms: C_2  and  N_34 
REMARK    2  A    between atoms: N_6  and  C_7 
REMARK    3  A    between atoms: N_11  and  C_12 
REMARK    4  A    between atoms: C_12  and  C_13 
REMARK    5  A    between atoms: C_13  and  N_14 
ROOT
HETATM    1  C   UNK N   1      40.175  35.657  49.245  0.00  0.00     0.126 A 
HETATM    2  N   UNK N   1      41.204  36.169  49.938  0.00  0.00    -0.292 N 
ATOM      3  HN  UNK N   1      41.119  36.759  50.765  1.00  0.00     0.187 HD
HETATM    4  N   UNK N   1      42.347  35.791  49.384  0.00  0.00    -0.284 N 
HETATM    5  C   UNK N   1      42.084  34.969  48.324  0.00  0.00     0.072 A 
HETATM    6  C   UNK N   1      40.684  34.902  48.193  0.00  0.00     0.019 A 
HETATM    7  C   UNK N   1      39.875  34.221  47.119  0.00  0.00     0.189 C 
HETATM    8  S   UNK N   1      40.960  33.855  45.740  0.00  0.00     0.183 S 
HETATM    9  O   UNK N   1      40.800  34.942  44.665  0.00  0.00    -0.222 OA
HETATM   10  O   UNK N   1      40.484  32.599  44.995  0.00  0.00    -0.222 OA
HETATM   11  C   UNK N   1      42.668  33.730  46.180  0.00  0.00     0.110 A 
HETATM   12  C   UNK N   1      43.573  33.092  45.318  0.00  0.00     0.138 A 
HETATM   13  F   UNK N   1      43.160  32.606  44.121  0.00  0.00    -0.204 F 
HETATM   14  C   UNK N   1      44.905  32.946  45.693  0.00  0.00     0.044 A 
HETATM   15  C   UNK N   1      45.332  33.410  46.932  0.00  0.00     0.004 A 
HETATM   16  C   UNK N   1      44.439  34.054  47.794  0.00  0.00     0.015 A 
HETATM   17  C   UNK N   1      43.088  34.262  47.421  0.00  0.00     0.018 A 
ENDROOT
BRANCH   4  18
HETATM   18  C   UNK N   1      43.612  36.395  49.832  0.00  0.00     0.137 C 
HETATM   19  C   UNK N   1      43.983  37.589  48.942  0.00  0.00     0.031 C 
HETATM   20  C   UNK N   1      45.374  38.134  49.333  0.00  0.00     0.032 C 
HETATM   21  C   UNK N   1      45.706  37.869  50.817  0.00  0.00     0.272 C 
HETATM   22  N   UNK N   1      44.486  37.972  51.636  0.00  0.00     0.092 N 
HETATM   23  C   UNK N   1      43.491  36.913  51.293  0.00  0.00     0.299 C 
BRANCH  22  24
HETATM   24  C   UNK N   1      44.779  37.988  53.082  0.00  0.00     0.302 C 
BRANCH  24  25
HETATM   25  C   UNK N   1      45.069  39.417  53.559  0.00  0.00     0.303 C 
BRANCH  25  26
HETATM   26  N   UNK N   1      44.003  39.877  54.470  0.00  0.00     0.102 N 
HETATM   27  C   UNK N   1      43.344  41.096  53.976  0.00  0.00     0.353 A 
HETATM   28  C   UNK N   1      42.043  40.368  53.694  0.00  0.00     0.295 A 
HETATM   29  F   UNK N   1      41.793  40.225  52.339  0.00  0.00    -0.203 F 
HETATM   30  F   UNK N   1      40.966  40.821  54.437  0.00  0.00    -0.203 F 
HETATM   31  C   UNK N   1      42.733  39.156  54.287  0.00  0.00     0.353 A 
ENDBRANCH  25  26
ENDBRANCH  24  25
ENDBRANCH  22  24
ENDBRANCH   4  18
BRANCH   1  32
HETATM   32  C   UNK N   1      38.734  36.004  49.500  0.00  0.00     0.272 C 
HETATM   33  O   UNK N   1      38.372  37.145  49.245  0.00  0.00    -0.266 OA
HETATM   34  N   UNK N   1      37.821  35.126  50.053  0.00  0.00    -0.343 N 
HETATM   35  C   UNK N   1      38.184  33.736  50.347  0.00  0.00     0.152 C 
HETATM   36  C   UNK N   1      36.533  35.671  50.505  0.00  0.00     0.152 C 
HETATM   37  C   UNK N   1      36.998  32.893  50.817  0.00  0.00     0.187 C 
HETATM   38  O   UNK N   1      36.238  33.614  51.762  0.00  0.00    -0.388 OA
HETATM   39  C   UNK N   1      35.555  34.619  51.045  0.00  0.00     0.187 C 
ENDBRANCH   1  32
TORSDOF 5
ENDMDL
MODEL 4
REMARK VINA RESULT:      -8.6      1.495      1.752
REMARK  5 active torsions:
REMARK  status: ('A' for Active; 'I' for Inactive)
REMARK    1  A    between atoms: C_2  and  C_3 
REMARK       I    between atoms: C_2  and  N_34 
REMARK    2  A    between atoms: N_6  and  C_7 
REMARK    3  A    between atoms: N_11  and  C_12 
REMARK    4  A    between atoms: C_12  and  C_13 
REMARK    5  A    between atoms: C_13  and  N_14 
ROOT
HETATM    1  C   UNK N   1      40.554  37.693  49.766  0.00  0.00     0.126 A 
HETATM    2  N   UNK N   1      40.945  36.687  48.969  0.00  0.00    -0.292 N 
ATOM      3  HN  UNK N   1      40.333  36.159  48.347  1.00  0.00     0.187 HD
HETATM    4  N   UNK N   1      42.246  36.483  49.114  0.00  0.00    -0.284 N 
HETATM    5  C   UNK N   1      42.752  37.402  49.990  0.00  0.00     0.072 A 
HETATM    6  C   UNK N   1      41.667  38.168  50.454  0.00  0.00     0.019 A 
HETATM    7  C   UNK N   1      41.661  39.239  51.514  0.00  0.00     0.189 C 
HETATM    8  S   UNK N   1      43.183  39.115  52.452  0.00  0.00     0.183 S 
HETATM    9  O   UNK N   1      42.919  38.336  53.750  0.00  0.00    -0.222 OA
HETATM   10  O   UNK N   1      43.604  40.491  52.987  0.00  0.00    -0.222 OA
HETATM   11  C   UNK N   1      44.509  38.338  51.575  0.00  0.00     0.110 A 
HETATM   12  C   UNK N   1      45.832  38.500  52.011  0.00  0.00     0.138 A 
HETATM   13  F   UNK N   1      46.108  39.214  53.131  0.00  0.00    -0.204 F 
HETATM   14  C   UNK N   1      46.877  37.933  51.286  0.00  0.00     0.044 A 
HETATM   15  C   UNK N   1      46.609  37.228  50.118  0.00  0.00     0.004 A 
HETATM   16  C   UNK N   1      45.292  37.055  49.682  0.00  0.00     0.015 A 
HETATM   17  C   UNK N   1      44.203  37.577  50.423  0.00  0.00     0.018 A 
ENDROOT
BRANCH   4  18
HETATM   18  C   UNK N   1      42.873  35.296  48.508  0.00  0.00     0.137 C 
HETATM   19  C   UNK N   1      42.601  34.050  49.362  0.00  0.00     0.031 C 
HETATM   20  C   UNK N   1      43.370  32.838  48.794  0.00  0.00     0.032 C 
HETATM   21  C   UNK N   1      43.608  32.960  47.274  0.00  0.00     0.272 C 
HETATM   22  N   UNK N   1      42.459  33.620  46.632  0.00  0.00     0.092 N 
HETATM   23  C   UNK N   1      42.299  35.032  47.087  0.00  0.00     0.299 C 
BRANCH  22  24
HETATM   24  C   UNK N   1      42.510  33.531  45.160  0.00  0.00     0.302 C 
BRANCH  24  25
HETATM   25  C   UNK N   1      42.461  34.931  44.533  0.00  0.00     0.303 C 
BRANCH  25  26
HETATM   26  N   UNK N   1      42.019  34.845  43.127  0.00  0.00     0.102 N 
HETATM   27  C   UNK N   1      41.029  33.776  42.925  0.00  0.00     0.353 A 
HETATM   28  C   UNK N   1      39.910  34.763  42.650  0.00  0.00     0.295 A 
HETATM   29  F   UNK N   1      38.980  34.815  43.674  0.00  0.00    -0.203 F 
HETATM   30  F   UNK N   1      39.368  34.668  41.380  0.00  0.00    -0.203 F 
HETATM   31  C   UNK N   1      40.980  35.829  42.784  0.00  0.00     0.353 A 
ENDBRANCH  25  26
ENDBRANCH  24  25
ENDBRANCH  22  24
ENDBRANCH   4  18
BRANCH   1  32
HETATM   32  C   UNK N   1      39.120  38.094  49.972  0.00  0.00     0.272 C 
HETATM   33  O   UNK N   1      38.733  39.118  49.425  0.00  0.00    -0.266 OA
HETATM   34  N   UNK N   1      38.240  37.402  50.783  0.00  0.00    -0.343 N 
HETATM   35  C   UNK N   1      38.631  36.150  51.438  0.00  0.00     0.152 C 
HETATM   36  C   UNK N   1      36.962  38.048  51.116  0.00  0.00     0.152 C 
HETATM   37  C   UNK N   1      37.476  35.468  52.170  0.00  0.00     0.187 C 
HETATM   38  O   UNK N   1      36.742  36.422  52.907  0.00  0.00    -0.388 OA
HETATM   39  C   UNK N   1      36.019  37.186  51.966  0.00  0.00     0.187 C 
ENDBRANCH   1  32
TORSDOF 5
ENDMDL
MODEL 5
REMARK VINA RESULT:      -8.2      4.300      5.611
REMARK  5 active torsions:
REMARK  status: ('A' for Active; 'I' for Inactive)
REMARK    1  A    between atoms: C_2  and  C_3 
REMARK       I    between atoms: C_2  and  N_34 
REMARK    2  A    between atoms: N_6  and  C_7 
REMARK    3  A    between atoms: N_11  and  C_12 
REMARK    4  A    between atoms: C_12  and  C_13 
REMARK    5  A    between atoms: C_13  and  N_14 
ROOT
HETATM    1  C   UNK N   1      41.491  39.488  52.756  0.00  0.00     0.126 A 
HETATM    2  N   UNK N   1      41.101  38.609  51.820  0.00  0.00    -0.292 N 
ATOM      3  HN  UNK N   1      40.133  38.393  51.583  1.00  0.00     0.187 HD
HETATM    4  N   UNK N   1      42.166  38.063  51.250  0.00  0.00    -0.284 N 
HETATM    5  C   UNK N   1      43.296  38.620  51.780  0.00  0.00     0.072 A 
HETATM    6  C   UNK N   1      42.882  39.514  52.784  0.00  0.00     0.019 A 
HETATM    7  C   UNK N   1      43.733  40.303  53.746  0.00  0.00     0.189 C 
HETATM    8  S   UNK N   1      45.385  39.609  53.740  0.00  0.00     0.183 S 
HETATM    9  O   UNK N   1      45.544  38.663  54.940  0.00  0.00    -0.222 OA
HETATM   10  O   UNK N   1      46.429  40.692  54.049  0.00  0.00    -0.222 OA
HETATM   11  C   UNK N   1      45.793  38.732  52.259  0.00  0.00     0.110 A 
HETATM   12  C   UNK N   1      47.134  38.464  51.945  0.00  0.00     0.138 A 
HETATM   13  F   UNK N   1      48.128  38.833  52.791  0.00  0.00    -0.204 F 
HETATM   14  C   UNK N   1      47.454  37.823  50.751  0.00  0.00     0.044 A 
HETATM   15  C   UNK N   1      46.445  37.471  49.860  0.00  0.00     0.004 A 
HETATM   16  C   UNK N   1      45.106  37.727  50.170  0.00  0.00     0.015 A 
HETATM   17  C   UNK N   1      44.744  38.334  51.397  0.00  0.00     0.018 A 
ENDROOT
BRANCH   4  18
HETATM   18  C   UNK N   1      42.003  36.914  50.344  0.00  0.00     0.137 C 
HETATM   19  C   UNK N   1      42.809  35.711  50.850  0.00  0.00     0.031 C 
HETATM   20  C   UNK N   1      42.741  34.556  49.828  0.00  0.00     0.032 C 
HETATM   21  C   UNK N   1      41.443  34.593  48.994  0.00  0.00     0.272 C 
HETATM   22  N   UNK N   1      40.322  35.069  49.823  0.00  0.00     0.092 N 
HETATM   23  C   UNK N   1      40.511  36.484  50.260  0.00  0.00     0.299 C 
BRANCH  22  24
HETATM   24  C   UNK N   1      39.015  34.880  49.163  0.00  0.00     0.302 C 
BRANCH  24  25
HETATM   25  C   UNK N   1      38.007  35.929  49.651  0.00  0.00     0.303 C 
BRANCH  25  26
HETATM   26  N   UNK N   1      36.862  35.270  50.308  0.00  0.00     0.102 N 
HETATM   27  C   UNK N   1      37.284  34.125  51.131  0.00  0.00     0.353 A 
HETATM   28  C   UNK N   1      36.927  34.829  52.427  0.00  0.00     0.295 A 
HETATM   29  F   UNK N   1      38.042  35.193  53.162  0.00  0.00    -0.203 F 
HETATM   30  F   UNK N   1      35.930  34.205  53.156  0.00  0.00    -0.203 F 
HETATM   31  C   UNK N   1      36.427  35.952  51.538  0.00  0.00     0.353 A 
ENDBRANCH  25  26
ENDBRANCH  24  25
ENDBRANCH  22  24
ENDBRANCH   4  18
BRANCH   1  32
HETATM   32  C   UNK N   1      40.550  40.179  53.704  0.00  0.00     0.272 C 
HETATM   33  O   UNK N   1      40.038  41.226  53.332  0.00  0.00    -0.266 OA
HETATM   34  N   UNK N   1      40.278  39.725  54.981  0.00  0.00    -0.343 N 
HETATM   35  C   UNK N   1      40.831  38.459  55.473  0.00  0.00     0.152 C 
HETATM   36  C   UNK N   1      39.568  40.632  55.894  0.00  0.00     0.152 C 
HETATM   37  C   UNK N   1      40.298  38.065  56.850  0.00  0.00     0.187 C 
HETATM   38  O   UNK N   1      40.298  39.188  57.706  0.00  0.00    -0.388 OA
HETATM   39  C   UNK N   1      39.250  40.026  57.268  0.00  0.00     0.187 C 
ENDBRANCH   1  32
TORSDOF 5
ENDMDL
MODEL 6
REMARK VINA RESULT:      -8.1      4.787      6.704
REMARK  5 active torsions:
REMARK  status: ('A' for Active; 'I' for Inactive)
REMARK    1  A    between atoms: C_2  and  C_3 
REMARK       I    between atoms: C_2  and  N_34 
REMARK    2  A    between atoms: N_6  and  C_7 
REMARK    3  A    between atoms: N_11  and  C_12 
REMARK    4  A    between atoms: C_12  and  C_13 
REMARK    5  A    between atoms: C_13  and  N_14 
ROOT
HETATM    1  C   UNK N   1      38.303  40.445  55.211  0.00  0.00     0.126 A 
HETATM    2  N   UNK N   1      38.394  39.814  54.030  0.00  0.00    -0.292 N 
ATOM      3  HN  UNK N   1      37.607  39.596  53.419  1.00  0.00     0.187 HD
HETATM    4  N   UNK N   1      39.661  39.518  53.779  0.00  0.00    -0.284 N 
HETATM    5  C   UNK N   1      40.446  40.001  54.788  0.00  0.00     0.072 A 
HETATM    6  C   UNK N   1      39.583  40.568  55.744  0.00  0.00     0.019 A 
HETATM    7  C   UNK N   1      39.927  41.141  57.095  0.00  0.00     0.189 C 
HETATM    8  S   UNK N   1      41.578  40.599  57.534  0.00  0.00     0.183 S 
HETATM    9  O   UNK N   1      41.482  39.387  58.474  0.00  0.00    -0.222 OA
HETATM   10  O   UNK N   1      42.270  41.639  58.427  0.00  0.00    -0.222 OA
HETATM   11  C   UNK N   1      42.590  40.172  56.148  0.00  0.00     0.110 A 
HETATM   12  C   UNK N   1      43.984  40.097  56.288  0.00  0.00     0.138 A 
HETATM   13  F   UNK N   1      44.568  40.307  57.495  0.00  0.00    -0.204 F 
HETATM   14  C   UNK N   1      44.780  39.817  55.182  0.00  0.00     0.044 A 
HETATM   15  C   UNK N   1      44.195  39.634  53.934  0.00  0.00     0.004 A 
HETATM   16  C   UNK N   1      42.806  39.699  53.787  0.00  0.00     0.015 A 
HETATM   17  C   UNK N   1      41.964  39.935  54.901  0.00  0.00     0.018 A 
ENDROOT
BRANCH   4  18
HETATM   18  C   UNK N   1      39.996  38.637  52.648  0.00  0.00     0.137 C 
HETATM   19  C   UNK N   1      38.735  37.942  52.115  0.00  0.00     0.031 C 
HETATM   20  C   UNK N   1      39.112  36.921  51.020  0.00  0.00     0.032 C 
HETATM   21  C   UNK N   1      40.409  37.313  50.281  0.00  0.00     0.272 C 
HETATM   22  N   UNK N   1      40.496  38.778  50.152  0.00  0.00     0.092 N 
HETATM   23  C   UNK N   1      40.619  39.451  51.479  0.00  0.00     0.299 C 
BRANCH  22  24
HETATM   24  C   UNK N   1      41.573  39.198  49.233  0.00  0.00     0.302 C 
BRANCH  24  25
HETATM   25  C   UNK N   1      42.289  37.974  48.646  0.00  0.00     0.303 C 
BRANCH  25  26
HETATM   26  N   UNK N   1      43.741  38.065  48.895  0.00  0.00     0.102 N 
HETATM   27  C   UNK N   1      44.042  38.782  50.144  0.00  0.00     0.353 A 
HETATM   28  C   UNK N   1      44.551  37.527  50.828  0.00  0.00     0.295 A 
HETATM   29  F   UNK N   1      43.698  37.075  51.821  0.00  0.00    -0.203 F 
HETATM   30  F   UNK N   1      45.886  37.581  51.192  0.00  0.00    -0.203 F 
HETATM   31  C   UNK N   1      44.304  36.845  49.497  0.00  0.00     0.353 A 
ENDBRANCH  25  26
ENDBRANCH  24  25
ENDBRANCH  22  24
ENDBRANCH   4  18
BRANCH   1  32
HETATM   32  C   UNK N   1      37.002  40.792  55.881  0.00  0.00     0.272 C 
HETATM   33  O   UNK N   1      36.263  39.869  56.196  0.00  0.00    -0.266 OA
HETATM   34  N   UNK N   1      36.579  42.088  56.106  0.00  0.00    -0.343 N 
HETATM   35  C   UNK N   1      37.434  43.236  55.784  0.00  0.00     0.152 C 
HETATM   36  C   UNK N   1      35.180  42.293  56.510  0.00  0.00     0.152 C 
HETATM   37  C   UNK N   1      36.845  44.571  56.240  0.00  0.00     0.187 C 
HETATM   38  O   UNK N   1      35.473  44.629  55.914  0.00  0.00    -0.388 OA
HETATM   39  C   UNK N   1      34.812  43.753  56.802  0.00  0.00     0.187 C 
ENDBRANCH   1  32
TORSDOF 5
ENDMDL
MODEL 7
REMARK VINA RESULT:      -7.9      4.941      8.584
REMARK  5 active torsions:
REMARK  status: ('A' for Active; 'I' for Inactive)
REMARK    1  A    between atoms: C_2  and  C_3 
REMARK       I    between atoms: C_2  and  N_34 
REMARK    2  A    between atoms: N_6  and  C_7 
REMARK    3  A    between atoms: N_11  and  C_12 
REMARK    4  A    between atoms: C_12  and  C_13 
REMARK    5  A    between atoms: C_13  and  N_14 
ROOT
HETATM    1  C   UNK N   1      39.703  38.190  52.012  0.00  0.00     0.126 A 
HETATM    2  N   UNK N   1      40.113  38.538  53.241  0.00  0.00    -0.292 N 
ATOM      3  HN  UNK N   1      39.501  38.692  54.043  1.00  0.00     0.187 HD
HETATM    4  N   UNK N   1      41.433  38.652  53.256  0.00  0.00    -0.284 N 
HETATM    5  C   UNK N   1      41.927  38.327  52.023  0.00  0.00     0.072 A 
HETATM    6  C   UNK N   1      40.821  38.065  51.193  0.00  0.00     0.019 A 
HETATM    7  C   UNK N   1      40.808  37.770  49.716  0.00  0.00     0.189 C 
HETATM    8  S   UNK N   1      42.398  38.235  49.032  0.00  0.00     0.183 S 
HETATM    9  O   UNK N   1      42.287  39.626  48.388  0.00  0.00    -0.222 OA
HETATM   10  O   UNK N   1      42.748  37.353  47.825  0.00  0.00    -0.222 OA
HETATM   11  C   UNK N   1      43.714  38.253  50.214  0.00  0.00     0.110 A 
HETATM   12  C   UNK N   1      45.049  38.224  49.783  0.00  0.00     0.138 A 
HETATM   13  F   UNK N   1      45.347  38.227  48.460  0.00  0.00    -0.204 F 
HETATM   14  C   UNK N   1      46.080  38.181  50.717  0.00  0.00     0.044 A 
HETATM   15  C   UNK N   1      45.785  38.142  52.075  0.00  0.00     0.004 A 
HETATM   16  C   UNK N   1      44.457  38.180  52.513  0.00  0.00     0.015 A 
HETATM   17  C   UNK N   1      43.387  38.272  51.590  0.00  0.00     0.018 A 
ENDROOT
BRANCH   4  18
HETATM   18  C   UNK N   1      42.104  39.230  54.431  0.00  0.00     0.137 C 
HETATM   19  C   UNK N   1      42.573  40.661  54.133  0.00  0.00     0.031 C 
HETATM   20  C   UNK N   1      43.392  41.211  55.321  0.00  0.00     0.032 C 
HETATM   21  C   UNK N   1      42.976  40.569  56.661  0.00  0.00     0.272 C 
HETATM   22  N   UNK N   1      41.527  40.306  56.670  0.00  0.00     0.092 N 
HETATM   23  C   UNK N   1      41.136  39.292  55.647  0.00  0.00     0.299 C 
BRANCH  22  24
HETATM   24  C   UNK N   1      41.031  39.937  58.011  0.00  0.00     0.302 C 
BRANCH  24  25
HETATM   25  C   UNK N   1      39.497  39.897  58.026  0.00  0.00     0.303 C 
BRANCH  25  26
HETATM   26  N   UNK N   1      39.025  38.710  58.766  0.00  0.00     0.102 N 
HETATM   27  C   UNK N   1      38.055  37.926  57.988  0.00  0.00     0.353 A 
HETATM   28  C   UNK N   1      39.017  36.765  57.816  0.00  0.00     0.295 A 
HETATM   29  F   UNK N   1      39.479  36.642  56.517  0.00  0.00    -0.203 F 
HETATM   30  F   UNK N   1      38.589  35.582  58.394  0.00  0.00    -0.203 F 
HETATM   31  C   UNK N   1      39.956  37.572  58.691  0.00  0.00     0.353 A 
ENDBRANCH  25  26
ENDBRANCH  24  25
ENDBRANCH  22  24
ENDBRANCH   4  18
BRANCH   1  32
HETATM   32  C   UNK N   1      38.260  38.122  51.595  0.00  0.00     0.272 C 
HETATM   33  O   UNK N   1      37.781  39.104  51.044  0.00  0.00    -0.266 OA
HETATM   34  N   UNK N   1      37.440  37.039  51.848  0.00  0.00    -0.343 N 
HETATM   35  C   UNK N   1      37.961  35.818  52.473  0.00  0.00     0.152 C 
HETATM   36  C   UNK N   1      35.994  37.209  51.641  0.00  0.00     0.152 C 
HETATM   37  C   UNK N   1      36.933  34.689  52.535  0.00  0.00     0.187 C 
HETATM   38  O   UNK N   1      35.686  35.194  52.961  0.00  0.00    -0.388 OA
HETATM   39  C   UNK N   1      35.165  35.940  51.883  0.00  0.00     0.187 C 
ENDBRANCH   1  32
TORSDOF 5
ENDMDL
MODEL 8
REMARK VINA RESULT:      -7.9      2.277      3.190
REMARK  5 active torsions:
REMARK  status: ('A' for Active; 'I' for Inactive)
REMARK    1  A    between atoms: C_2  and  C_3 
REMARK       I    between atoms: C_2  and  N_34 
REMARK    2  A    between atoms: N_6  and  C_7 
REMARK    3  A    between atoms: N_11  and  C_12 
REMARK    4  A    between atoms: C_12  and  C_13 
REMARK    5  A    between atoms: C_13  and  N_14 
ROOT
HETATM    1  C   UNK N   1      38.987  38.481  51.941  0.00  0.00     0.126 A 
HETATM    2  N   UNK N   1      39.868  38.180  50.975  0.00  0.00    -0.292 N 
ATOM      3  HN  UNK N   1      39.626  37.827  50.049  1.00  0.00     0.187 HD
HETATM    4  N   UNK N   1      41.099  38.410  51.406  0.00  0.00    -0.284 N 
HETATM    5  C   UNK N   1      41.045  38.922  52.672  0.00  0.00     0.072 A 
HETATM    6  C   UNK N   1      39.690  38.938  53.052  0.00  0.00     0.019 A 
HETATM    7  C   UNK N   1      39.095  39.305  54.387  0.00  0.00     0.189 C 
HETATM    8  S   UNK N   1      40.406  39.306  55.609  0.00  0.00     0.183 S 
HETATM    9  O   UNK N   1      40.388  37.974  56.374  0.00  0.00    -0.222 OA
HETATM   10  O   UNK N   1      40.105  40.318  56.725  0.00  0.00    -0.222 OA
HETATM   11  C   UNK N   1      42.021  39.560  54.934  0.00  0.00     0.110 A 
HETATM   12  C   UNK N   1      43.078  39.957  55.766  0.00  0.00     0.138 A 
HETATM   13  F   UNK N   1      42.887  40.108  57.101  0.00  0.00    -0.204 F 
HETATM   14  C   UNK N   1      44.334  40.210  55.222  0.00  0.00     0.044 A 
HETATM   15  C   UNK N   1      44.533  40.092  53.851  0.00  0.00     0.004 A 
HETATM   16  C   UNK N   1      43.486  39.689  53.016  0.00  0.00     0.015 A 
HETATM   17  C   UNK N   1      42.210  39.377  53.544  0.00  0.00     0.018 A 
ENDROOT
BRANCH   4  18
HETATM   18  C   UNK N   1      42.250  37.957  50.608  0.00  0.00     0.137 C 
HETATM   19  C   UNK N   1      43.355  37.407  51.521  0.00  0.00     0.031 C 
HETATM   20  C   UNK N   1      44.608  37.059  50.690  0.00  0.00     0.032 C 
HETATM   21  C   UNK N   1      44.256  36.687  49.234  0.00  0.00     0.272 C 
HETATM   22  N   UNK N   1      42.974  35.965  49.191  0.00  0.00     0.092 N 
HETATM   23  C   UNK N   1      41.833  36.822  49.631  0.00  0.00     0.299 C 
BRANCH  22  24
HETATM   24  C   UNK N   1      42.714  35.359  47.870  0.00  0.00     0.302 C 
BRANCH  24  25
HETATM   25  C   UNK N   1      43.683  34.199  47.608  0.00  0.00     0.303 C 
BRANCH  25  26
HETATM   26  N   UNK N   1      43.045  33.185  46.746  0.00  0.00     0.102 N 
HETATM   27  C   UNK N   1      43.278  33.450  45.318  0.00  0.00     0.353 A 
HETATM   28  C   UNK N   1      44.172  32.234  45.162  0.00  0.00     0.295 A 
HETATM   29  F   UNK N   1      45.503  32.569  44.980  0.00  0.00    -0.203 F 
HETATM   30  F   UNK N   1      43.688  31.283  44.281  0.00  0.00    -0.203 F 
HETATM   31  C   UNK N   1      43.838  31.952  46.614  0.00  0.00     0.353 A 
ENDBRANCH  25  26
ENDBRANCH  24  25
ENDBRANCH  22  24
ENDBRANCH   4  18
BRANCH   1  32
HETATM   32  C   UNK N   1      37.512  38.199  51.853  0.00  0.00     0.272 C 
HETATM   33  O   UNK N   1      36.776  39.123  51.535  0.00  0.00    -0.266 OA
HETATM   34  N   UNK N   1      36.947  36.977  52.162  0.00  0.00    -0.343 N 
HETATM   35  C   UNK N   1      37.777  35.820  52.515  0.00  0.00     0.152 C 
HETATM   36  C   UNK N   1      35.485  36.913  52.303  0.00  0.00     0.152 C 
HETATM   37  C   UNK N   1      36.973  34.531  52.679  0.00  0.00     0.187 C 
HETATM   38  O   UNK N   1      35.803  34.785  53.428  0.00  0.00    -0.388 OA
HETATM   39  C   UNK N   1      34.935  35.508  52.582  0.00  0.00     0.187 C 
ENDBRANCH   1  32
TORSDOF 5
ENDMDL
MODEL 9
REMARK VINA RESULT:      -7.9      4.104      5.491
REMARK  5 active torsions:
REMARK  status: ('A' for Active; 'I' for Inactive)
REMARK    1  A    between atoms: C_2  and  C_3 
REMARK       I    between atoms: C_2  and  N_34 
REMARK    2  A    between atoms: N_6  and  C_7 
REMARK    3  A    between atoms: N_11  and  C_12 
REMARK    4  A    between atoms: C_12  and  C_13 
REMARK    5  A    between atoms: C_13  and  N_14 
ROOT
HETATM    1  C   UNK N   1      37.367  37.982  49.458  0.00  0.00     0.126 A 
HETATM    2  N   UNK N   1      36.919  36.730  49.641  0.00  0.00    -0.292 N 
ATOM      3  HN  UNK N   1      35.938  36.464  49.725  1.00  0.00     0.187 HD
HETATM    4  N   UNK N   1      37.945  35.893  49.695  0.00  0.00    -0.284 N 
HETATM    5  C   UNK N   1      39.105  36.588  49.497  0.00  0.00     0.072 A 
HETATM    6  C   UNK N   1      38.756  37.947  49.382  0.00  0.00     0.019 A 
HETATM    7  C   UNK N   1      39.667  39.141  49.263  0.00  0.00     0.189 C 
HETATM    8  S   UNK N   1      41.321  38.641  49.738  0.00  0.00     0.183 S 
HETATM    9  O   UNK N   1      41.576  39.046  51.198  0.00  0.00    -0.222 OA
HETATM   10  O   UNK N   1      42.374  39.471  48.989  0.00  0.00    -0.222 OA
HETATM   11  C   UNK N   1      41.628  36.908  49.560  0.00  0.00     0.110 A 
HETATM   12  C   UNK N   1      42.946  36.426  49.525  0.00  0.00     0.138 A 
HETATM   13  F   UNK N   1      43.995  37.273  49.671  0.00  0.00    -0.204 F 
HETATM   14  C   UNK N   1      43.184  35.069  49.328  0.00  0.00     0.044 A 
HETATM   15  C   UNK N   1      42.117  34.196  49.143  0.00  0.00     0.004 A 
HETATM   16  C   UNK N   1      40.802  34.668  49.185  0.00  0.00     0.015 A 
HETATM   17  C   UNK N   1      40.524  36.034  49.431  0.00  0.00     0.018 A 
ENDROOT
BRANCH   4  18
HETATM   18  C   UNK N   1      37.727  34.496  50.103  0.00  0.00     0.137 C 
HETATM   19  C   UNK N   1      37.033  34.435  51.470  0.00  0.00     0.031 C 
HETATM   20  C   UNK N   1      36.929  32.972  51.951  0.00  0.00     0.032 C 
HETATM   21  C   UNK N   1      36.877  31.975  50.773  0.00  0.00     0.272 C 
HETATM   22  N   UNK N   1      36.131  32.560  49.646  0.00  0.00     0.092 N 
HETATM   23  C   UNK N   1      36.821  33.756  49.078  0.00  0.00     0.299 C 
BRANCH  22  24
HETATM   24  C   UNK N   1      35.824  31.567  48.599  0.00  0.00     0.302 C 
BRANCH  24  25
HETATM   25  C   UNK N   1      36.436  31.991  47.257  0.00  0.00     0.303 C 
BRANCH  25  26
HETATM   26  N   UNK N   1      35.370  32.335  46.296  0.00  0.00     0.102 N 
HETATM   27  C   UNK N   1      35.892  33.065  45.131  0.00  0.00     0.353 A 
HETATM   28  C   UNK N   1      35.621  31.906  44.189  0.00  0.00     0.295 A 
HETATM   29  F   UNK N   1      36.781  31.287  43.756  0.00  0.00    -0.203 F 
HETATM   30  F   UNK N   1      34.706  32.189  43.189  0.00  0.00    -0.203 F 
HETATM   31  C   UNK N   1      35.016  31.222  45.399  0.00  0.00     0.353 A 
ENDBRANCH  25  26
ENDBRANCH  24  25
ENDBRANCH  22  24
ENDBRANCH   4  18
BRANCH   1  32
HETATM   32  C   UNK N   1      36.490  39.203  49.500  0.00  0.00     0.272 C 
HETATM   33  O   UNK N   1      36.385  39.788  50.570  0.00  0.00    -0.266 OA
HETATM   34  N   UNK N   1      35.762  39.662  48.418  0.00  0.00    -0.343 N 
HETATM   35  C   UNK N   1      35.873  39.026  47.101  0.00  0.00     0.152 C 
HETATM   36  C   UNK N   1      34.739  40.688  48.665  0.00  0.00     0.152 C 
HETATM   37  C   UNK N   1      35.103  39.768  46.009  0.00  0.00     0.187 C 
HETATM   38  O   UNK N   1      33.825  40.133  46.485  0.00  0.00    -0.388 OA
HETATM   39  C   UNK N   1      34.025  41.187  47.402  0.00  0.00     0.187 C 
ENDBRANCH   1  32
TORSDOF 5
ENDMDL
