MODEL 1
REMARK VINA RESULT:      -7.9      0.000      0.000
REMARK  3 active torsions:
REMARK  status: ('A' for Active; 'I' for Inactive)
REMARK    1  A    between atoms: C_2  and  C_3 
REMARK       I    between atoms: C_2  and  N_32 
REMARK    2  A    between atoms: N_6  and  C_7 
REMARK    3  A    between atoms: N_11  and  C_12 
ROOT
HETATM    1  C   UNK N   1      39.642  38.739  51.725  0.00  0.00     0.126 A 
HETATM    2  N   UNK N   1      39.253  39.156  52.948  0.00  0.00    -0.292 N 
ATOM      3  HN  UNK N   1      38.286  39.265  53.255  1.00  0.00     0.187 HD
HETATM    4  N   UNK N   1      40.328  39.405  53.688  0.00  0.00    -0.285 N 
HETATM    5  C   UNK N   1      41.450  39.178  52.944  0.00  0.00     0.072 A 
HETATM    6  C   UNK N   1      41.033  38.721  51.688  0.00  0.00     0.019 A 
HETATM    7  C   UNK N   1      41.903  38.228  50.557  0.00  0.00     0.189 C 
HETATM    8  S   UNK N   1      43.454  37.682  51.274  0.00  0.00     0.180 S 
HETATM    9  O   UNK N   1      43.345  36.206  51.687  0.00  0.00    -0.222 OA
HETATM   10  O   UNK N   1      44.575  37.649  50.225  0.00  0.00    -0.222 OA
HETATM   11  C   UNK N   1      43.914  38.646  52.679  0.00  0.00     0.072 A 
HETATM   12  C   UNK N   1      45.255  38.741  53.065  0.00  0.00     0.024 A 
HETATM   13  C   UNK N   1      45.615  39.548  54.141  0.00  0.00     0.002 A 
HETATM   14  C   UNK N   1      44.640  40.278  54.817  0.00  0.00     0.001 A 
HETATM   15  C   UNK N   1      43.297  40.182  54.439  0.00  0.00     0.015 A 
HETATM   16  C   UNK N   1      42.899  39.334  53.380  0.00  0.00     0.014 A 
ENDROOT
BRANCH   4  17
HETATM   17  C   UNK N   1      40.233  39.668  55.137  0.00  0.00     0.110 C 
HETATM   18  C   UNK N   1      40.147  38.313  55.885  0.00  0.00     0.029 C 
HETATM   19  C   UNK N   1      40.271  38.353  57.413  0.00  0.00     0.021 C 
HETATM   20  C   UNK N   1      39.318  39.330  58.097  0.00  0.00     0.117 C 
HETATM   21  N   UNK N   1      39.798  40.701  57.845  0.00  0.00    -0.408 N 
HETATM   22  C   UNK N   1      39.151  41.398  56.720  0.00  0.00     0.119 C 
HETATM   23  C   UNK N   1      39.001  40.552  55.439  0.00  0.00     0.047 C 
BRANCH  21  24
HETATM   24  C   UNK N   1      40.035  41.587  59.021  0.00  0.00     0.083 C 
HETATM   25  C   UNK N   1      39.875  43.093  58.699  0.00  0.00     0.051 C 
HETATM   26  C   UNK N   1      39.173  43.830  59.849  0.00  0.00     0.169 C 
HETATM   27  O   UNK N   1      37.876  43.292  60.088  0.00  0.00    -0.391 OA
HETATM   28  C   UNK N   1      37.849  41.882  60.338  0.00  0.00     0.169 C 
HETATM   29  C   UNK N   1      39.217  41.184  60.271  0.00  0.00     0.051 C 
ENDBRANCH  21  24
ENDBRANCH   4  17
BRANCH   1  30
HETATM   30  C   UNK N   1      38.723  38.264  50.630  0.00  0.00     0.272 C 
HETATM   31  O   UNK N   1      38.529  39.022  49.690  0.00  0.00    -0.266 OA
HETATM   32  N   UNK N   1      38.128  37.018  50.605  0.00  0.00    -0.343 N 
HETATM   33  C   UNK N   1      38.356  36.042  51.675  0.00  0.00     0.152 C 
HETATM   34  C   UNK N   1      37.423  36.625  49.374  0.00  0.00     0.152 C 
HETATM   35  C   UNK N   1      37.560  34.746  51.496  0.00  0.00     0.187 C 
HETATM   36  O   UNK N   1      37.579  34.339  50.144  0.00  0.00    -0.388 OA
HETATM   37  C   UNK N   1      36.760  35.248  49.440  0.00  0.00     0.187 C 
ENDBRANCH   1  30
TORSDOF 3
ENDMDL
MODEL 2
REMARK VINA RESULT:      -7.8      4.692      7.164
REMARK  3 active torsions:
REMARK  status: ('A' for Active; 'I' for Inactive)
REMARK    1  A    between atoms: C_2  and  C_3 
REMARK       I    between atoms: C_2  and  N_32 
REMARK    2  A    between atoms: N_6  and  C_7 
REMARK    3  A    between atoms: N_11  and  C_12 
ROOT
HETATM    1  C   UNK N   1      40.498  34.873  48.249  0.00  0.00     0.126 A 
HETATM    2  N   UNK N   1      39.341  34.456  48.804  0.00  0.00    -0.292 N 
ATOM      3  HN  UNK N   1      38.781  33.666  48.482  1.00  0.00     0.187 HD
HETATM    4  N   UNK N   1      39.044  35.239  49.836  0.00  0.00    -0.285 N 
HETATM    5  C   UNK N   1      39.998  36.207  49.957  0.00  0.00     0.072 A 
HETATM    6  C   UNK N   1      40.959  35.974  48.965  0.00  0.00     0.019 A 
HETATM    7  C   UNK N   1      42.264  36.704  48.763  0.00  0.00     0.189 C 
HETATM    8  S   UNK N   1      42.717  37.435  50.338  0.00  0.00     0.180 S 
HETATM    9  O   UNK N   1      43.534  36.429  51.162  0.00  0.00    -0.222 OA
HETATM   10  O   UNK N   1      43.709  38.593  50.152  0.00  0.00    -0.222 OA
HETATM   11  C   UNK N   1      41.304  37.939  51.268  0.00  0.00     0.072 A 
HETATM   12  C   UNK N   1      41.414  38.946  52.233  0.00  0.00     0.024 A 
HETATM   13  C   UNK N   1      40.284  39.375  52.924  0.00  0.00     0.002 A 
HETATM   14  C   UNK N   1      39.041  38.816  52.634  0.00  0.00     0.001 A 
HETATM   15  C   UNK N   1      38.927  37.806  51.675  0.00  0.00     0.015 A 
HETATM   16  C   UNK N   1      40.066  37.319  50.993  0.00  0.00     0.014 A 
ENDROOT
BRANCH   4  17
HETATM   17  C   UNK N   1      37.956  34.909  50.777  0.00  0.00     0.110 C 
HETATM   18  C   UNK N   1      37.729  33.374  50.757  0.00  0.00     0.029 C 
HETATM   19  C   UNK N   1      36.800  32.795  51.831  0.00  0.00     0.021 C 
HETATM   20  C   UNK N   1      35.434  33.473  51.913  0.00  0.00     0.117 C 
HETATM   21  N   UNK N   1      35.609  34.800  52.530  0.00  0.00    -0.408 N 
HETATM   22  C   UNK N   1      35.723  35.924  51.584  0.00  0.00     0.119 C 
HETATM   23  C   UNK N   1      36.667  35.669  50.392  0.00  0.00     0.047 C 
BRANCH  21  24
HETATM   24  C   UNK N   1      34.787  35.129  53.730  0.00  0.00     0.083 C 
HETATM   25  C   UNK N   1      34.508  36.644  53.888  0.00  0.00     0.051 C 
HETATM   26  C   UNK N   1      33.070  36.890  54.368  0.00  0.00     0.169 C 
HETATM   27  O   UNK N   1      32.123  36.363  53.445  0.00  0.00    -0.391 OA
HETATM   28  C   UNK N   1      32.292  34.974  53.140  0.00  0.00     0.169 C 
HETATM   29  C   UNK N   1      33.487  34.297  53.833  0.00  0.00     0.051 C 
ENDBRANCH  21  24
ENDBRANCH   4  17
BRANCH   1  30
HETATM   30  C   UNK N   1      41.222  34.187  47.120  0.00  0.00     0.272 C 
HETATM   31  O   UNK N   1      40.860  34.446  45.980  0.00  0.00    -0.266 OA
HETATM   32  N   UNK N   1      42.289  33.327  47.293  0.00  0.00    -0.343 N 
HETATM   33  C   UNK N   1      42.804  33.011  48.629  0.00  0.00     0.152 C 
HETATM   34  C   UNK N   1      43.018  32.898  46.089  0.00  0.00     0.152 C 
HETATM   35  C   UNK N   1      43.947  31.992  48.613  0.00  0.00     0.187 C 
HETATM   36  O   UNK N   1      44.837  32.265  47.551  0.00  0.00    -0.388 OA
HETATM   37  C   UNK N   1      44.161  31.917  46.362  0.00  0.00     0.187 C 
ENDBRANCH   1  30
TORSDOF 3
ENDMDL
MODEL 3
REMARK VINA RESULT:      -7.5      5.338     10.063
REMARK  3 active torsions:
REMARK  status: ('A' for Active; 'I' for Inactive)
REMARK    1  A    between atoms: C_2  and  C_3 
REMARK       I    between atoms: C_2  and  N_32 
REMARK    2  A    between atoms: N_6  and  C_7 
REMARK    3  A    between atoms: N_11  and  C_12 
ROOT
HETATM    1  C   UNK N   1      38.696  35.315  50.277  0.00  0.00     0.126 A 
HETATM    2  N   UNK N   1      39.325  34.455  49.450  0.00  0.00    -0.292 N 
ATOM      3  HN  UNK N   1      38.906  33.623  49.032  1.00  0.00     0.187 HD
HETATM    4  N   UNK N   1      40.576  34.862  49.264  0.00  0.00    -0.285 N 
HETATM    5  C   UNK N   1      40.796  35.992  49.998  0.00  0.00     0.072 A 
HETATM    6  C   UNK N   1      39.592  36.318  50.635  0.00  0.00     0.019 A 
HETATM    7  C   UNK N   1      39.297  37.545  51.464  0.00  0.00     0.189 C 
HETATM    8  S   UNK N   1      40.457  38.819  50.966  0.00  0.00     0.180 S 
HETATM    9  O   UNK N   1      39.881  39.615  49.785  0.00  0.00    -0.222 OA
HETATM   10  O   UNK N   1      40.603  39.898  52.050  0.00  0.00    -0.222 OA
HETATM   11  C   UNK N   1      42.025  38.150  50.507  0.00  0.00     0.072 A 
HETATM   12  C   UNK N   1      43.180  38.936  50.581  0.00  0.00     0.024 A 
HETATM   13  C   UNK N   1      44.419  38.384  50.270  0.00  0.00     0.002 A 
HETATM   14  C   UNK N   1      44.509  37.041  49.909  0.00  0.00     0.001 A 
HETATM   15  C   UNK N   1      43.357  36.253  49.828  0.00  0.00     0.015 A 
HETATM   16  C   UNK N   1      42.081  36.802  50.093  0.00  0.00     0.014 A 
ENDROOT
BRANCH   4  17
HETATM   17  C   UNK N   1      41.450  34.254  48.243  0.00  0.00     0.110 C 
HETATM   18  C   UNK N   1      42.585  33.475  48.959  0.00  0.00     0.029 C 
HETATM   19  C   UNK N   1      43.471  32.579  48.085  0.00  0.00     0.021 C 
HETATM   20  C   UNK N   1      44.075  33.282  46.871  0.00  0.00     0.117 C 
HETATM   21  N   UNK N   1      43.006  33.495  45.878  0.00  0.00    -0.408 N 
HETATM   22  C   UNK N   1      42.380  34.828  45.903  0.00  0.00     0.119 C 
HETATM   23  C   UNK N   1      42.024  35.346  47.311  0.00  0.00     0.047 C 
BRANCH  21  24
HETATM   24  C   UNK N   1      43.223  32.978  44.496  0.00  0.00     0.083 C 
HETATM   25  C   UNK N   1      43.290  31.433  44.422  0.00  0.00     0.051 C 
HETATM   26  C   UNK N   1      42.565  30.911  43.172  0.00  0.00     0.169 C 
HETATM   27  O   UNK N   1      41.192  31.291  43.178  0.00  0.00    -0.391 OA
HETATM   28  C   UNK N   1      40.961  32.698  43.311  0.00  0.00     0.169 C 
HETATM   29  C   UNK N   1      42.230  33.554  43.459  0.00  0.00     0.051 C 
ENDBRANCH  21  24
ENDBRANCH   4  17
BRANCH   1  30
HETATM   30  C   UNK N   1      37.238  35.259  50.653  0.00  0.00     0.272 C 
HETATM   31  O   UNK N   1      36.421  35.476  49.770  0.00  0.00    -0.266 OA
HETATM   32  N   UNK N   1      36.775  34.936  51.914  0.00  0.00    -0.343 N 
HETATM   33  C   UNK N   1      37.699  34.617  53.007  0.00  0.00     0.152 C 
HETATM   34  C   UNK N   1      35.328  34.724  52.073  0.00  0.00     0.152 C 
HETATM   35  C   UNK N   1      36.994  34.347  54.339  0.00  0.00     0.187 C 
HETATM   36  O   UNK N   1      35.835  33.567  54.135  0.00  0.00    -0.388 OA
HETATM   37  C   UNK N   1      34.892  34.408  53.506  0.00  0.00     0.187 C 
ENDBRANCH   1  30
TORSDOF 3
ENDMDL
MODEL 4
REMARK VINA RESULT:      -7.3      3.271      4.575
REMARK  3 active torsions:
REMARK  status: ('A' for Active; 'I' for Inactive)
REMARK    1  A    between atoms: C_2  and  C_3 
REMARK       I    between atoms: C_2  and  N_32 
REMARK    2  A    between atoms: N_6  and  C_7 
REMARK    3  A    between atoms: N_11  and  C_12 
ROOT
HETATM    1  C   UNK N   1      37.850  34.515  50.307  0.00  0.00     0.126 A 
HETATM    2  N   UNK N   1      37.409  35.181  51.394  0.00  0.00    -0.292 N 
ATOM      3  HN  UNK N   1      36.612  34.909  51.971  1.00  0.00     0.187 HD
HETATM    4  N   UNK N   1      38.175  36.248  51.595  0.00  0.00    -0.285 N 
HETATM    5  C   UNK N   1      39.122  36.314  50.615  0.00  0.00     0.072 A 
HETATM    6  C   UNK N   1      38.951  35.193  49.792  0.00  0.00     0.019 A 
HETATM    7  C   UNK N   1      39.826  34.759  48.641  0.00  0.00     0.189 C 
HETATM    8  S   UNK N   1      41.448  35.478  48.901  0.00  0.00     0.180 S 
HETATM    9  O   UNK N   1      42.303  34.536  49.762  0.00  0.00    -0.222 OA
HETATM   10  O   UNK N   1      42.247  35.545  47.591  0.00  0.00    -0.222 OA
HETATM   11  C   UNK N   1      41.359  37.059  49.682  0.00  0.00     0.072 A 
HETATM   12  C   UNK N   1      42.392  37.987  49.524  0.00  0.00     0.024 A 
HETATM   13  C   UNK N   1      42.288  39.251  50.098  0.00  0.00     0.002 A 
HETATM   14  C   UNK N   1      41.142  39.596  50.811  0.00  0.00     0.001 A 
HETATM   15  C   UNK N   1      40.108  38.670  50.977  0.00  0.00     0.015 A 
HETATM   16  C   UNK N   1      40.210  37.364  50.443  0.00  0.00     0.014 A 
ENDROOT
BRANCH   4  17
HETATM   17  C   UNK N   1      38.080  37.055  52.827  0.00  0.00     0.110 C 
HETATM   18  C   UNK N   1      37.821  36.105  54.025  0.00  0.00     0.029 C 
HETATM   19  C   UNK N   1      37.917  36.716  55.429  0.00  0.00     0.021 C 
HETATM   20  C   UNK N   1      37.070  37.970  55.630  0.00  0.00     0.117 C 
HETATM   21  N   UNK N   1      37.712  39.085  54.909  0.00  0.00    -0.408 N 
HETATM   22  C   UNK N   1      37.174  39.358  53.565  0.00  0.00     0.119 C 
HETATM   23  C   UNK N   1      36.954  38.105  52.693  0.00  0.00     0.047 C 
BRANCH  21  24
HETATM   24  C   UNK N   1      38.025  40.325  55.675  0.00  0.00     0.083 C 
HETATM   25  C   UNK N   1      38.272  41.559  54.773  0.00  0.00     0.051 C 
HETATM   26  C   UNK N   1      37.647  42.822  55.386  0.00  0.00     0.169 C 
HETATM   27  O   UNK N   1      36.240  42.671  55.549  0.00  0.00    -0.391 OA
HETATM   28  C   UNK N   1      35.844  41.525  56.311  0.00  0.00     0.169 C 
HETATM   29  C   UNK N   1      37.002  40.634  56.793  0.00  0.00     0.051 C 
ENDBRANCH  21  24
ENDBRANCH   4  17
BRANCH   1  30
HETATM   30  C   UNK N   1      37.311  33.200  49.809  0.00  0.00     0.272 C 
HETATM   31  O   UNK N   1      37.400  32.236  50.557  0.00  0.00    -0.266 OA
HETATM   32  N   UNK N   1      36.688  33.030  48.588  0.00  0.00    -0.343 N 
HETATM   33  C   UNK N   1      36.504  34.153  47.664  0.00  0.00     0.152 C 
HETATM   34  C   UNK N   1      36.036  31.735  48.331  0.00  0.00     0.152 C 
HETATM   35  C   UNK N   1      35.850  33.748  46.339  0.00  0.00     0.187 C 
HETATM   36  O   UNK N   1      34.799  32.833  46.568  0.00  0.00    -0.388 OA
HETATM   37  C   UNK N   1      35.403  31.614  46.943  0.00  0.00     0.187 C 
ENDBRANCH   1  30
TORSDOF 3
ENDMDL
MODEL 5
REMARK VINA RESULT:      -7.1      8.263     11.178
REMARK  3 active torsions:
REMARK  status: ('A' for Active; 'I' for Inactive)
REMARK    1  A    between atoms: C_2  and  C_3 
REMARK       I    between atoms: C_2  and  N_32 
REMARK    2  A    between atoms: N_6  and  C_7 
REMARK    3  A    between atoms: N_11  and  C_12 
ROOT
HETATM    1  C   UNK N   1      40.229  32.613  43.212  0.00  0.00     0.126 A 
HETATM    2  N   UNK N   1      39.067  32.446  43.876  0.00  0.00    -0.292 N 
ATOM      3  HN  UNK N   1      38.184  32.150  43.457  1.00  0.00     0.187 HD
HETATM    4  N   UNK N   1      39.252  32.728  45.161  0.00  0.00    -0.285 N 
HETATM    5  C   UNK N   1      40.546  33.116  45.356  0.00  0.00     0.072 A 
HETATM    6  C   UNK N   1      41.201  33.021  44.121  0.00  0.00     0.019 A 
HETATM    7  C   UNK N   1      42.670  33.231  43.844  0.00  0.00     0.189 C 
HETATM    8  S   UNK N   1      43.549  32.955  45.383  0.00  0.00     0.180 S 
HETATM    9  O   UNK N   1      43.901  31.466  45.521  0.00  0.00    -0.222 OA
HETATM   10  O   UNK N   1      44.933  33.621  45.365  0.00  0.00    -0.222 OA
HETATM   11  C   UNK N   1      42.608  33.463  46.788  0.00  0.00     0.072 A 
HETATM   12  C   UNK N   1      43.249  33.811  47.982  0.00  0.00     0.024 A 
HETATM   13  C   UNK N   1      42.503  34.262  49.067  0.00  0.00     0.002 A 
HETATM   14  C   UNK N   1      41.121  34.390  48.952  0.00  0.00     0.001 A 
HETATM   15  C   UNK N   1      40.475  34.039  47.763  0.00  0.00     0.015 A 
HETATM   16  C   UNK N   1      41.204  33.532  46.663  0.00  0.00     0.014 A 
ENDROOT
BRANCH   4  17
HETATM   17  C   UNK N   1      38.226  32.433  46.179  0.00  0.00     0.110 C 
HETATM   18  C   UNK N   1      37.507  31.114  45.795  0.00  0.00     0.029 C 
HETATM   19  C   UNK N   1      36.562  30.507  46.839  0.00  0.00     0.021 C 
HETATM   20  C   UNK N   1      35.512  31.476  47.377  0.00  0.00     0.117 C 
HETATM   21  N   UNK N   1      36.181  32.432  48.279  0.00  0.00    -0.408 N 
HETATM   22  C   UNK N   1      36.553  33.719  47.668  0.00  0.00     0.119 C 
HETATM   23  C   UNK N   1      37.224  33.606  46.284  0.00  0.00     0.047 C 
BRANCH  21  24
HETATM   24  C   UNK N   1      35.648  32.576  49.664  0.00  0.00     0.083 C 
HETATM   25  C   UNK N   1      35.762  31.280  50.504  0.00  0.00     0.051 C 
HETATM   26  C   UNK N   1      36.162  31.598  51.953  0.00  0.00     0.169 C 
HETATM   27  O   UNK N   1      37.419  32.266  52.004  0.00  0.00    -0.391 OA
HETATM   28  C   UNK N   1      37.495  33.459  51.216  0.00  0.00     0.169 C 
HETATM   29  C   UNK N   1      36.222  33.796  50.422  0.00  0.00     0.051 C 
ENDBRANCH  21  24
ENDBRANCH   4  17
BRANCH   1  30
HETATM   30  C   UNK N   1      40.459  32.297  41.757  0.00  0.00     0.272 C 
HETATM   31  O   UNK N   1      40.789  31.153  41.475  0.00  0.00    -0.266 OA
HETATM   32  N   UNK N   1      40.277  33.202  40.730  0.00  0.00    -0.343 N 
HETATM   33  C   UNK N   1      39.835  34.575  40.993  0.00  0.00     0.152 C 
HETATM   34  C   UNK N   1      40.343  32.689  39.352  0.00  0.00     0.152 C 
HETATM   35  C   UNK N   1      39.753  35.439  39.731  0.00  0.00     0.187 C 
HETATM   36  O   UNK N   1      39.193  34.701  38.664  0.00  0.00    -0.388 OA
HETATM   37  C   UNK N   1      40.169  33.760  38.272  0.00  0.00     0.187 C 
ENDBRANCH   1  30
TORSDOF 3
ENDMDL
MODEL 6
REMARK VINA RESULT:      -7.1      5.429      9.018
REMARK  3 active torsions:
REMARK  status: ('A' for Active; 'I' for Inactive)
REMARK    1  A    between atoms: C_2  and  C_3 
REMARK       I    between atoms: C_2  and  N_32 
REMARK    2  A    between atoms: N_6  and  C_7 
REMARK    3  A    between atoms: N_11  and  C_12 
ROOT
HETATM    1  C   UNK N   1      36.641  32.586  49.680  0.00  0.00     0.126 A 
HETATM    2  N   UNK N   1      37.728  33.363  49.491  0.00  0.00    -0.292 N 
ATOM      3  HN  UNK N   1      38.395  33.270  48.725  1.00  0.00     0.187 HD
HETATM    4  N   UNK N   1      37.792  34.269  50.461  0.00  0.00    -0.285 N 
HETATM    5  C   UNK N   1      36.753  34.079  51.325  0.00  0.00     0.072 A 
HETATM    6  C   UNK N   1      35.982  33.021  50.827  0.00  0.00     0.019 A 
HETATM    7  C   UNK N   1      34.667  32.511  51.365  0.00  0.00     0.189 C 
HETATM    8  S   UNK N   1      33.914  33.850  52.291  0.00  0.00     0.180 S 
HETATM    9  O   UNK N   1      33.065  34.720  51.352  0.00  0.00    -0.222 OA
HETATM   10  O   UNK N   1      32.869  33.323  53.286  0.00  0.00    -0.222 OA
HETATM   11  C   UNK N   1      35.116  34.863  53.095  0.00  0.00     0.072 A 
HETATM   12  C   UNK N   1      34.772  35.605  54.229  0.00  0.00     0.024 A 
HETATM   13  C   UNK N   1      35.739  36.358  54.889  0.00  0.00     0.002 A 
HETATM   14  C   UNK N   1      37.055  36.351  54.430  0.00  0.00     0.001 A 
HETATM   15  C   UNK N   1      37.403  35.614  53.294  0.00  0.00     0.015 A 
HETATM   16  C   UNK N   1      36.429  34.879  52.579  0.00  0.00     0.014 A 
ENDROOT
BRANCH   4  17
HETATM   17  C   UNK N   1      38.743  35.396  50.413  0.00  0.00     0.110 C 
HETATM   18  C   UNK N   1      38.003  36.650  49.877  0.00  0.00     0.029 C 
HETATM   19  C   UNK N   1      38.749  37.987  49.964  0.00  0.00     0.021 C 
HETATM   20  C   UNK N   1      40.148  37.969  49.353  0.00  0.00     0.117 C 
HETATM   21  N   UNK N   1      41.038  37.213  50.253  0.00  0.00    -0.408 N 
HETATM   22  C   UNK N   1      41.241  35.798  49.895  0.00  0.00     0.119 C 
HETATM   23  C   UNK N   1      39.953  35.037  49.520  0.00  0.00     0.047 C 
BRANCH  21  24
HETATM   24  C   UNK N   1      42.285  37.879  50.726  0.00  0.00     0.083 C 
HETATM   25  C   UNK N   1      43.414  36.883  51.090  0.00  0.00     0.051 C 
HETATM   26  C   UNK N   1      44.782  37.411  50.631  0.00  0.00     0.169 C 
HETATM   27  O   UNK N   1      44.808  37.608  49.221  0.00  0.00    -0.391 OA
HETATM   28  C   UNK N   1      43.774  38.460  48.714  0.00  0.00     0.169 C 
HETATM   29  C   UNK N   1      42.791  38.988  49.773  0.00  0.00     0.051 C 
ENDBRANCH  21  24
ENDBRANCH   4  17
BRANCH   1  30
HETATM   30  C   UNK N   1      36.163  31.509  48.742  0.00  0.00     0.272 C 
HETATM   31  O   UNK N   1      35.943  30.405  49.219  0.00  0.00    -0.266 OA
HETATM   32  N   UNK N   1      35.918  31.706  47.397  0.00  0.00    -0.343 N 
HETATM   33  C   UNK N   1      36.114  33.017  46.770  0.00  0.00     0.152 C 
HETATM   34  C   UNK N   1      35.263  30.615  46.658  0.00  0.00     0.152 C 
HETATM   35  C   UNK N   1      35.849  33.014  45.262  0.00  0.00     0.187 C 
HETATM   36  O   UNK N   1      34.702  32.245  44.963  0.00  0.00    -0.388 OA
HETATM   37  C   UNK N   1      35.062  30.896  45.167  0.00  0.00     0.187 C 
ENDBRANCH   1  30
TORSDOF 3
ENDMDL
MODEL 7
REMARK VINA RESULT:      -7.0      7.813     12.646
REMARK  3 active torsions:
REMARK  status: ('A' for Active; 'I' for Inactive)
REMARK    1  A    between atoms: C_2  and  C_3 
REMARK       I    between atoms: C_2  and  N_32 
REMARK    2  A    between atoms: N_6  and  C_7 
REMARK    3  A    between atoms: N_11  and  C_12 
ROOT
HETATM    1  C   UNK N   1      38.443  34.201  47.940  0.00  0.00     0.126 A 
HETATM    2  N   UNK N   1      38.126  33.805  46.689  0.00  0.00    -0.292 N 
ATOM      3  HN  UNK N   1      37.179  33.713  46.321  1.00  0.00     0.187 HD
HETATM    4  N   UNK N   1      39.243  33.553  46.014  0.00  0.00    -0.285 N 
HETATM    5  C   UNK N   1      40.319  33.756  46.829  0.00  0.00     0.072 A 
HETATM    6  C   UNK N   1      39.830  34.201  48.064  0.00  0.00     0.019 A 
HETATM    7  C   UNK N   1      40.633  34.668  49.253  0.00  0.00     0.189 C 
HETATM    8  S   UNK N   1      42.232  35.205  48.641  0.00  0.00     0.180 S 
HETATM    9  O   UNK N   1      42.166  36.687  48.243  0.00  0.00    -0.222 OA
HETATM   10  O   UNK N   1      43.286  35.210  49.758  0.00  0.00    -0.222 OA
HETATM   11  C   UNK N   1      42.768  34.253  47.254  0.00  0.00     0.072 A 
HETATM   12  C   UNK N   1      44.129  34.147  46.951  0.00  0.00     0.024 A 
HETATM   13  C   UNK N   1      44.546  33.350  45.888  0.00  0.00     0.002 A 
HETATM   14  C   UNK N   1      43.606  32.641  45.143  0.00  0.00     0.001 A 
HETATM   15  C   UNK N   1      42.244  32.749  45.438  0.00  0.00     0.015 A 
HETATM   16  C   UNK N   1      41.791  33.588  46.482  0.00  0.00     0.014 A 
ENDROOT
BRANCH   4  17
HETATM   17  C   UNK N   1      39.235  33.310  44.559  0.00  0.00     0.110 C 
HETATM   18  C   UNK N   1      38.082  34.130  43.923  0.00  0.00     0.029 C 
HETATM   19  C   UNK N   1      38.040  34.199  42.391  0.00  0.00     0.021 C 
HETATM   20  C   UNK N   1      38.089  32.839  41.698  0.00  0.00     0.117 C 
HETATM   21  N   UNK N   1      39.461  32.309  41.813  0.00  0.00    -0.408 N 
HETATM   22  C   UNK N   1      39.678  31.363  42.921  0.00  0.00     0.119 C 
HETATM   23  C   UNK N   1      39.072  31.800  44.270  0.00  0.00     0.047 C 
BRANCH  21  24
HETATM   24  C   UNK N   1      40.164  31.911  40.560  0.00  0.00     0.083 C 
HETATM   25  C   UNK N   1      39.804  32.801  39.344  0.00  0.00     0.051 C 
HETATM   26  C   UNK N   1      41.045  33.082  38.483  0.00  0.00     0.169 C 
HETATM   27  O   UNK N   1      42.051  33.753  39.236  0.00  0.00    -0.391 OA
HETATM   28  C   UNK N   1      42.447  33.083  40.438  0.00  0.00     0.169 C 
HETATM   29  C   UNK N   1      41.695  31.773  40.729  0.00  0.00     0.051 C 
ENDBRANCH  21  24
ENDBRANCH   4  17
BRANCH   1  30
HETATM   30  C   UNK N   1      37.464  34.674  48.982  0.00  0.00     0.272 C 
HETATM   31  O   UNK N   1      37.322  35.881  49.113  0.00  0.00    -0.266 OA
HETATM   32  N   UNK N   1      36.692  33.832  49.758  0.00  0.00    -0.343 N 
HETATM   33  C   UNK N   1      36.777  32.374  49.618  0.00  0.00     0.152 C 
HETATM   34  C   UNK N   1      35.639  34.443  50.585  0.00  0.00     0.152 C 
HETATM   35  C   UNK N   1      35.890  31.616  50.610  0.00  0.00     0.187 C 
HETATM   36  O   UNK N   1      34.634  32.249  50.731  0.00  0.00    -0.388 OA
HETATM   37  C   UNK N   1      34.856  33.447  51.443  0.00  0.00     0.187 C 
ENDBRANCH   1  30
TORSDOF 3
ENDMDL
MODEL 8
REMARK VINA RESULT:      -6.9      2.636      4.918
REMARK  3 active torsions:
REMARK  status: ('A' for Active; 'I' for Inactive)
REMARK    1  A    between atoms: C_2  and  C_3 
REMARK       I    between atoms: C_2  and  N_32 
REMARK    2  A    between atoms: N_6  and  C_7 
REMARK    3  A    between atoms: N_11  and  C_12 
ROOT
HETATM    1  C   UNK N   1      41.525  37.789  50.968  0.00  0.00     0.126 A 
HETATM    2  N   UNK N   1      41.770  38.223  52.222  0.00  0.00    -0.292 N 
ATOM      3  HN  UNK N   1      42.689  38.263  52.665  1.00  0.00     0.187 HD
HETATM    4  N   UNK N   1      40.626  38.588  52.790  0.00  0.00    -0.285 N 
HETATM    5  C   UNK N   1      39.599  38.371  51.917  0.00  0.00     0.072 A 
HETATM    6  C   UNK N   1      40.158  37.885  50.728  0.00  0.00     0.019 A 
HETATM    7  C   UNK N   1      39.444  37.605  49.428  0.00  0.00     0.189 C 
HETATM    8  S   UNK N   1      37.952  38.600  49.412  0.00  0.00     0.180 S 
HETATM    9  O   UNK N   1      38.256  39.984  48.819  0.00  0.00    -0.222 OA
HETATM   10  O   UNK N   1      36.916  38.039  48.426  0.00  0.00    -0.222 OA
HETATM   11  C   UNK N   1      37.265  38.796  51.026  0.00  0.00     0.072 A 
HETATM   12  C   UNK N   1      35.903  39.072  51.188  0.00  0.00     0.024 A 
HETATM   13  C   UNK N   1      35.360  39.171  52.465  0.00  0.00     0.002 A 
HETATM   14  C   UNK N   1      36.170  38.971  53.581  0.00  0.00     0.001 A 
HETATM   15  C   UNK N   1      37.532  38.700  53.425  0.00  0.00     0.015 A 
HETATM   16  C   UNK N   1      38.119  38.641  52.139  0.00  0.00     0.014 A 
ENDROOT
BRANCH   4  17
HETATM   17  C   UNK N   1      40.590  39.306  54.079  0.00  0.00     0.110 C 
HETATM   18  C   UNK N   1      42.003  39.873  54.373  0.00  0.00     0.029 C 
HETATM   19  C   UNK N   1      42.130  40.847  55.551  0.00  0.00     0.021 C 
HETATM   20  C   UNK N   1      41.549  40.327  56.863  0.00  0.00     0.117 C 
HETATM   21  N   UNK N   1      40.078  40.361  56.766  0.00  0.00    -0.408 N 
HETATM   22  C   UNK N   1      39.443  39.088  56.383  0.00  0.00     0.119 C 
HETATM   23  C   UNK N   1      40.123  38.357  55.206  0.00  0.00     0.047 C 
BRANCH  21  24
HETATM   24  C   UNK N   1      39.323  41.094  57.821  0.00  0.00     0.083 C 
HETATM   25  C   UNK N   1      39.971  42.444  58.215  0.00  0.00     0.051 C 
HETATM   26  C   UNK N   1      38.901  43.522  58.443  0.00  0.00     0.169 C 
HETATM   27  O   UNK N   1      38.126  43.734  57.267  0.00  0.00    -0.391 OA
HETATM   28  C   UNK N   1      37.510  42.555  56.736  0.00  0.00     0.169 C 
HETATM   29  C   UNK N   1      37.818  41.258  57.503  0.00  0.00     0.051 C 
ENDBRANCH  21  24
ENDBRANCH   4  17
BRANCH   1  30
HETATM   30  C   UNK N   1      42.572  37.383  49.964  0.00  0.00     0.272 C 
HETATM   31  O   UNK N   1      43.447  38.197  49.702  0.00  0.00    -0.266 OA
HETATM   32  N   UNK N   1      42.626  36.141  49.361  0.00  0.00    -0.343 N 
HETATM   33  C   UNK N   1      41.638  35.102  49.666  0.00  0.00     0.152 C 
HETATM   34  C   UNK N   1      43.820  35.826  48.560  0.00  0.00     0.152 C 
HETATM   35  C   UNK N   1      41.833  33.821  48.850  0.00  0.00     0.187 C 
HETATM   36  O   UNK N   1      43.205  33.497  48.761  0.00  0.00    -0.388 OA
HETATM   37  C   UNK N   1      43.786  34.448  47.895  0.00  0.00     0.187 C 
ENDBRANCH   1  30
TORSDOF 3
ENDMDL
MODEL 9
REMARK VINA RESULT:      -6.9      4.328      6.337
REMARK  3 active torsions:
REMARK  status: ('A' for Active; 'I' for Inactive)
REMARK    1  A    between atoms: C_2  and  C_3 
REMARK       I    between atoms: C_2  and  N_32 
REMARK    2  A    between atoms: N_6  and  C_7 
REMARK    3  A    between atoms: N_11  and  C_12 
ROOT
HETATM    1  C   UNK N   1      40.790  35.271  48.223  0.00  0.00     0.126 A 
HETATM    2  N   UNK N   1      39.609  35.027  48.828  0.00  0.00    -0.292 N 
ATOM      3  HN  UNK N   1      38.957  34.285  48.574  1.00  0.00     0.187 HD
HETATM    4  N   UNK N   1      39.429  35.909  49.806  0.00  0.00    -0.285 N 
HETATM    5  C   UNK N   1      40.487  36.769  49.839  0.00  0.00     0.072 A 
HETATM    6  C   UNK N   1      41.390  36.360  48.849  0.00  0.00     0.019 A 
HETATM    7  C   UNK N   1      42.763  36.922  48.571  0.00  0.00     0.189 C 
HETATM    8  S   UNK N   1      43.336  37.705  50.080  0.00  0.00     0.180 S 
HETATM    9  O   UNK N   1      44.057  36.674  50.960  0.00  0.00    -0.222 OA
HETATM   10  O   UNK N   1      44.445  38.728  49.793  0.00  0.00    -0.222 OA
HETATM   11  C   UNK N   1      42.013  38.430  50.997  0.00  0.00     0.072 A 
HETATM   12  C   UNK N   1      42.259  39.483  51.884  0.00  0.00     0.024 A 
HETATM   13  C   UNK N   1      41.202  40.084  52.562  0.00  0.00     0.002 A 
HETATM   14  C   UNK N   1      39.898  39.651  52.337  0.00  0.00     0.001 A 
HETATM   15  C   UNK N   1      39.646  38.595  51.456  0.00  0.00     0.015 A 
HETATM   16  C   UNK N   1      40.706  37.936  50.790  0.00  0.00     0.014 A 
ENDROOT
BRANCH   4  17
HETATM   17  C   UNK N   1      38.336  35.770  50.788  0.00  0.00     0.110 C 
HETATM   18  C   UNK N   1      37.909  34.281  50.851  0.00  0.00     0.029 C 
HETATM   19  C   UNK N   1      36.944  33.881  51.974  0.00  0.00     0.021 C 
HETATM   20  C   UNK N   1      35.682  34.737  52.054  0.00  0.00     0.117 C 
HETATM   21  N   UNK N   1      36.049  36.057  52.600  0.00  0.00    -0.408 N 
HETATM   22  C   UNK N   1      36.281  37.110  51.596  0.00  0.00     0.119 C 
HETATM   23  C   UNK N   1      37.147  36.676  50.395  0.00  0.00     0.047 C 
BRANCH  21  24
HETATM   24  C   UNK N   1      35.314  36.547  53.800  0.00  0.00     0.083 C 
HETATM   25  C   UNK N   1      36.095  37.616  54.605  0.00  0.00     0.051 C 
HETATM   26  C   UNK N   1      35.153  38.720  55.110  0.00  0.00     0.169 C 
HETATM   27  O   UNK N   1      34.502  39.375  54.026  0.00  0.00    -0.391 OA
HETATM   28  C   UNK N   1      33.785  38.504  53.142  0.00  0.00     0.169 C 
HETATM   29  C   UNK N   1      33.870  37.009  53.494  0.00  0.00     0.051 C 
ENDBRANCH  21  24
ENDBRANCH   4  17
BRANCH   1  30
HETATM   30  C   UNK N   1      41.404  34.430  47.134  0.00  0.00     0.272 C 
HETATM   31  O   UNK N   1      41.057  34.660  45.983  0.00  0.00    -0.266 OA
HETATM   32  N   UNK N   1      42.358  33.456  47.351  0.00  0.00    -0.343 N 
HETATM   33  C   UNK N   1      42.853  33.162  48.700  0.00  0.00     0.152 C 
HETATM   34  C   UNK N   1      43.007  32.864  46.171  0.00  0.00     0.152 C 
HETATM   35  C   UNK N   1      43.860  32.008  48.739  0.00  0.00     0.187 C 
HETATM   36  O   UNK N   1      44.758  32.100  47.653  0.00  0.00    -0.388 OA
HETATM   37  C   UNK N   1      44.023  31.766  46.496  0.00  0.00     0.187 C 
ENDBRANCH   1  30
TORSDOF 3
ENDMDL
