MODEL 1
REMARK VINA RESULT:      -8.0      0.000      0.000
REMARK  6 active torsions:
REMARK  status: ('A' for Active; 'I' for Inactive)
REMARK    1  A    between atoms: O_2  and  C_3 
REMARK    2  A    between atoms: C_3  and  C_4 
REMARK    3  A    between atoms: C_4  and  C_5 
REMARK    4  A    between atoms: C_5  and  N_6 
REMARK    5  A    between atoms: C_10  and  N_11 
REMARK    6  A    between atoms: C_14  and  C_15 
REMARK       I    between atoms: C_15  and  N_17 
ROOT
HETATM    1  N   UNK N   1      41.198  34.670  48.756  0.00  0.00    -0.285 N 
HETATM    2  N   UNK N   1      39.944  34.234  48.797  0.00  0.00    -0.292 N 
ATOM      3  HN  UNK N   1      39.621  33.331  48.454  1.00  0.00     0.187 HD
HETATM    4  C   UNK N   1      39.167  35.179  49.366  0.00  0.00     0.126 A 
HETATM    5  C   UNK N   1      39.967  36.267  49.703  0.00  0.00     0.019 A 
HETATM    6  C   UNK N   1      41.267  35.904  49.331  0.00  0.00     0.072 A 
HETATM    7  C   UNK N   1      42.499  36.779  49.508  0.00  0.00     0.014 A 
HETATM    8  C   UNK N   1      43.812  36.256  49.582  0.00  0.00     0.015 A 
HETATM    9  C   UNK N   1      44.913  37.106  49.725  0.00  0.00     0.001 A 
HETATM   10  C   UNK N   1      44.732  38.485  49.811  0.00  0.00     0.002 A 
HETATM   11  C   UNK N   1      43.445  39.019  49.787  0.00  0.00     0.024 A 
HETATM   12  C   UNK N   1      42.340  38.173  49.650  0.00  0.00     0.072 A 
HETATM   13  S   UNK N   1      40.697  38.825  49.693  0.00  0.00     0.180 S 
HETATM   14  O   UNK N   1      40.300  39.314  48.291  0.00  0.00    -0.222 OA
HETATM   15  O   UNK N   1      40.622  40.108  50.533  0.00  0.00    -0.222 OA
HETATM   16  C   UNK N   1      39.525  37.592  50.274  0.00  0.00     0.189 C 
ENDROOT
BRANCH   1  17
HETATM   17  C   UNK N   1      42.251  33.945  48.025  0.00  0.00     0.110 C 
HETATM   18  C   UNK N   1      42.848  32.860  48.950  0.00  0.00     0.029 C 
HETATM   19  C   UNK N   1      44.119  32.163  48.446  0.00  0.00     0.021 C 
HETATM   20  C   UNK N   1      44.015  31.552  47.050  0.00  0.00     0.117 C 
HETATM   21  N   UNK N   1      43.997  32.643  46.062  0.00  0.00    -0.412 N 
HETATM   22  C   UNK N   1      42.680  33.120  45.611  0.00  0.00     0.119 C 
HETATM   23  C   UNK N   1      41.655  33.320  46.741  0.00  0.00     0.047 C 
BRANCH  21  24
HETATM   24  C   UNK N   1      45.006  32.528  44.989  0.00  0.00     0.119 C 
BRANCH  24  25
HETATM   25  C   UNK N   1      46.348  33.188  45.349  0.00  0.00     0.045 C 
BRANCH  25  26
HETATM   26  C   UNK N   1      47.314  32.162  45.939  0.00  0.00     0.168 C 
BRANCH  26  27
HETATM   27  O   UNK N   1      47.568  32.497  47.287  0.00  0.00    -0.396 OA
HETATM   28  C   UNK N   1      47.682  31.319  48.051  0.00  0.00     0.201 C 
ENDBRANCH  26  27
ENDBRANCH  25  26
ENDBRANCH  24  25
ENDBRANCH  21  24
ENDBRANCH   1  17
BRANCH   4  29
HETATM   29  C   UNK N   1      37.673  35.092  49.533  0.00  0.00     0.272 C 
HETATM   30  O   UNK N   1      36.987  35.179  48.524  0.00  0.00    -0.266 OA
HETATM   31  N   UNK N   1      37.043  34.889  50.745  0.00  0.00    -0.343 N 
HETATM   32  C   UNK N   1      37.810  34.715  51.984  0.00  0.00     0.152 C 
HETATM   33  C   UNK N   1      35.590  34.657  50.728  0.00  0.00     0.152 C 
HETATM   34  C   UNK N   1      36.934  34.543  53.228  0.00  0.00     0.187 C 
HETATM   35  O   UNK N   1      35.825  33.718  52.942  0.00  0.00    -0.388 OA
HETATM   36  C   UNK N   1      34.967  34.474  52.113  0.00  0.00     0.187 C 
ENDBRANCH   4  29
TORSDOF 6
ENDMDL
MODEL 2
REMARK VINA RESULT:      -7.4      5.431      7.370
REMARK  6 active torsions:
REMARK  status: ('A' for Active; 'I' for Inactive)
REMARK    1  A    between atoms: O_2  and  C_3 
REMARK    2  A    between atoms: C_3  and  C_4 
REMARK    3  A    between atoms: C_4  and  C_5 
REMARK    4  A    between atoms: C_5  and  N_6 
REMARK    5  A    between atoms: C_10  and  N_11 
REMARK    6  A    between atoms: C_14  and  C_15 
REMARK       I    between atoms: C_15  and  N_17 
ROOT
HETATM    1  N   UNK N   1      42.595  39.658  53.893  0.00  0.00    -0.285 N 
HETATM    2  N   UNK N   1      42.576  39.933  55.191  0.00  0.00    -0.292 N 
ATOM      3  HN  UNK N   1      43.398  40.050  55.783  1.00  0.00     0.187 HD
HETATM    4  C   UNK N   1      41.295  40.033  55.603  0.00  0.00     0.126 A 
HETATM    5  C   UNK N   1      40.461  39.812  54.511  0.00  0.00     0.019 A 
HETATM    6  C   UNK N   1      41.317  39.605  53.422  0.00  0.00     0.072 A 
HETATM    7  C   UNK N   1      40.861  39.323  51.999  0.00  0.00     0.014 A 
HETATM    8  C   UNK N   1      41.667  39.586  50.865  0.00  0.00     0.015 A 
HETATM    9  C   UNK N   1      41.208  39.290  49.578  0.00  0.00     0.001 A 
HETATM   10  C   UNK N   1      39.940  38.744  49.390  0.00  0.00     0.002 A 
HETATM   11  C   UNK N   1      39.110  38.520  50.488  0.00  0.00     0.024 A 
HETATM   12  C   UNK N   1      39.562  38.820  51.777  0.00  0.00     0.072 A 
HETATM   13  S   UNK N   1      38.498  38.613  53.174  0.00  0.00     0.180 S 
HETATM   14  O   UNK N   1      38.561  37.156  53.658  0.00  0.00    -0.222 OA
HETATM   15  O   UNK N   1      37.021  38.778  52.786  0.00  0.00    -0.222 OA
HETATM   16  C   UNK N   1      38.954  39.730  54.507  0.00  0.00     0.189 C 
ENDROOT
BRANCH   1  17
HETATM   17  C   UNK N   1      43.840  39.304  53.189  0.00  0.00     0.110 C 
HETATM   18  C   UNK N   1      45.038  39.558  54.132  0.00  0.00     0.029 C 
HETATM   19  C   UNK N   1      46.433  39.474  53.496  0.00  0.00     0.021 C 
HETATM   20  C   UNK N   1      46.724  38.180  52.739  0.00  0.00     0.117 C 
HETATM   21  N   UNK N   1      45.949  38.185  51.488  0.00  0.00    -0.412 N 
HETATM   22  C   UNK N   1      44.640  37.511  51.506  0.00  0.00     0.119 C 
HETATM   23  C   UNK N   1      43.782  37.824  52.744  0.00  0.00     0.047 C 
BRANCH  21  24
HETATM   24  C   UNK N   1      46.741  37.950  50.263  0.00  0.00     0.119 C 
BRANCH  24  25
HETATM   25  C   UNK N   1      47.928  38.917  50.117  0.00  0.00     0.045 C 
BRANCH  25  26
HETATM   26  C   UNK N   1      49.015  38.309  49.233  0.00  0.00     0.168 C 
BRANCH  26  27
HETATM   27  O   UNK N   1      49.099  39.051  48.036  0.00  0.00    -0.396 OA
HETATM   28  C   UNK N   1      50.305  38.744  47.375  0.00  0.00     0.201 C 
ENDBRANCH  26  27
ENDBRANCH  25  26
ENDBRANCH  24  25
ENDBRANCH  21  24
ENDBRANCH   1  17
BRANCH   4  29
HETATM   29  C   UNK N   1      40.853  40.270  57.023  0.00  0.00     0.272 C 
HETATM   30  O   UNK N   1      40.908  41.417  57.446  0.00  0.00    -0.266 OA
HETATM   31  N   UNK N   1      40.361  39.282  57.853  0.00  0.00    -0.343 N 
HETATM   32  C   UNK N   1      40.211  37.899  57.387  0.00  0.00     0.152 C 
HETATM   33  C   UNK N   1      39.811  39.696  59.154  0.00  0.00     0.152 C 
HETATM   34  C   UNK N   1      39.691  36.943  58.464  0.00  0.00     0.187 C 
HETATM   35  O   UNK N   1      38.679  37.562  59.229  0.00  0.00    -0.388 OA
HETATM   36  C   UNK N   1      39.319  38.538  60.024  0.00  0.00     0.187 C 
ENDBRANCH   4  29
TORSDOF 6
ENDMDL
MODEL 3
REMARK VINA RESULT:      -7.2      4.517      6.998
REMARK  6 active torsions:
REMARK  status: ('A' for Active; 'I' for Inactive)
REMARK    1  A    between atoms: O_2  and  C_3 
REMARK    2  A    between atoms: C_3  and  C_4 
REMARK    3  A    between atoms: C_4  and  C_5 
REMARK    4  A    between atoms: C_5  and  N_6 
REMARK    5  A    between atoms: C_10  and  N_11 
REMARK    6  A    between atoms: C_14  and  C_15 
REMARK       I    between atoms: C_15  and  N_17 
ROOT
HETATM    1  N   UNK N   1      40.684  38.964  51.914  0.00  0.00    -0.285 N 
HETATM    2  N   UNK N   1      40.687  39.987  52.759  0.00  0.00    -0.292 N 
ATOM      3  HN  UNK N   1      41.422  40.690  52.834  1.00  0.00     0.187 HD
HETATM    4  C   UNK N   1      39.564  39.947  53.505  0.00  0.00     0.126 A 
HETATM    5  C   UNK N   1      38.810  38.845  53.111  0.00  0.00     0.019 A 
HETATM    6  C   UNK N   1      39.533  38.250  52.071  0.00  0.00     0.072 A 
HETATM    7  C   UNK N   1      39.102  37.003  51.314  0.00  0.00     0.014 A 
HETATM    8  C   UNK N   1      39.558  36.697  50.009  0.00  0.00     0.015 A 
HETATM    9  C   UNK N   1      39.145  35.527  49.364  0.00  0.00     0.001 A 
HETATM   10  C   UNK N   1      38.265  34.649  49.993  0.00  0.00     0.002 A 
HETATM   11  C   UNK N   1      37.767  34.952  51.258  0.00  0.00     0.024 A 
HETATM   12  C   UNK N   1      38.171  36.124  51.905  0.00  0.00     0.072 A 
HETATM   13  S   UNK N   1      37.493  36.564  53.478  0.00  0.00     0.180 S 
HETATM   14  O   UNK N   1      38.281  35.860  54.594  0.00  0.00    -0.222 OA
HETATM   15  O   UNK N   1      36.076  35.999  53.658  0.00  0.00    -0.222 OA
HETATM   16  C   UNK N   1      37.525  38.344  53.724  0.00  0.00     0.189 C 
ENDROOT
BRANCH   1  17
HETATM   17  C   UNK N   1      41.861  38.625  51.095  0.00  0.00     0.110 C 
HETATM   18  C   UNK N   1      41.748  39.346  49.732  0.00  0.00     0.029 C 
HETATM   19  C   UNK N   1      42.760  38.927  48.657  0.00  0.00     0.021 C 
HETATM   20  C   UNK N   1      44.225  38.999  49.081  0.00  0.00     0.117 C 
HETATM   21  N   UNK N   1      44.493  37.902  50.026  0.00  0.00    -0.412 N 
HETATM   22  C   UNK N   1      44.388  38.211  51.461  0.00  0.00     0.119 C 
HETATM   23  C   UNK N   1      43.150  39.041  51.843  0.00  0.00     0.047 C 
BRANCH  21  24
HETATM   24  C   UNK N   1      45.637  37.038  49.669  0.00  0.00     0.119 C 
BRANCH  24  25
HETATM   25  C   UNK N   1      46.968  37.803  49.581  0.00  0.00     0.045 C 
BRANCH  25  26
HETATM   26  C   UNK N   1      48.016  37.173  50.496  0.00  0.00     0.168 C 
BRANCH  26  27
HETATM   27  O   UNK N   1      47.870  37.708  51.794  0.00  0.00    -0.396 OA
HETATM   28  C   UNK N   1      48.328  39.040  51.809  0.00  0.00     0.201 C 
ENDBRANCH  26  27
ENDBRANCH  25  26
ENDBRANCH  24  25
ENDBRANCH  21  24
ENDBRANCH   1  17
BRANCH   4  29
HETATM   29  C   UNK N   1      39.227  40.897  54.624  0.00  0.00     0.272 C 
HETATM   30  O   UNK N   1      38.590  41.902  54.338  0.00  0.00    -0.266 OA
HETATM   31  N   UNK N   1      39.564  40.683  55.946  0.00  0.00    -0.343 N 
HETATM   32  C   UNK N   1      40.274  39.469  56.365  0.00  0.00     0.152 C 
HETATM   33  C   UNK N   1      39.020  41.614  56.947  0.00  0.00     0.152 C 
HETATM   34  C   UNK N   1      40.595  39.434  57.862  0.00  0.00     0.187 C 
HETATM   35  O   UNK N   1      39.510  39.933  58.613  0.00  0.00    -0.388 OA
HETATM   36  C   UNK N   1      39.469  41.325  58.381  0.00  0.00     0.187 C 
ENDBRANCH   4  29
TORSDOF 6
ENDMDL
MODEL 4
REMARK VINA RESULT:      -7.1      2.654      3.560
REMARK  6 active torsions:
REMARK  status: ('A' for Active; 'I' for Inactive)
REMARK    1  A    between atoms: O_2  and  C_3 
REMARK    2  A    between atoms: C_3  and  C_4 
REMARK    3  A    between atoms: C_4  and  C_5 
REMARK    4  A    between atoms: C_5  and  N_6 
REMARK    5  A    between atoms: C_10  and  N_11 
REMARK    6  A    between atoms: C_14  and  C_15 
REMARK       I    between atoms: C_15  and  N_17 
ROOT
HETATM    1  N   UNK N   1      39.799  34.756  49.201  0.00  0.00    -0.285 N 
HETATM    2  N   UNK N   1      38.705  34.007  49.261  0.00  0.00    -0.292 N 
ATOM      3  HN  UNK N   1      38.527  33.175  48.699  1.00  0.00     0.187 HD
HETATM    4  C   UNK N   1      37.866  34.522  50.183  0.00  0.00     0.126 A 
HETATM    5  C   UNK N   1      38.459  35.653  50.737  0.00  0.00     0.019 A 
HETATM    6  C   UNK N   1      39.708  35.764  50.114  0.00  0.00     0.072 A 
HETATM    7  C   UNK N   1      40.728  36.857  50.398  0.00  0.00     0.014 A 
HETATM    8  C   UNK N   1      42.112  36.704  50.146  0.00  0.00     0.015 A 
HETATM    9  C   UNK N   1      43.005  37.746  50.407  0.00  0.00     0.001 A 
HETATM   10  C   UNK N   1      42.547  38.952  50.934  0.00  0.00     0.002 A 
HETATM   11  C   UNK N   1      41.195  39.109  51.234  0.00  0.00     0.024 A 
HETATM   12  C   UNK N   1      40.298  38.067  50.981  0.00  0.00     0.072 A 
HETATM   13  S   UNK N   1      38.593  38.220  51.423  0.00  0.00     0.180 S 
HETATM   14  O   UNK N   1      37.831  38.941  50.300  0.00  0.00    -0.222 OA
HETATM   15  O   UNK N   1      38.404  39.164  52.620  0.00  0.00    -0.222 OA
HETATM   16  C   UNK N   1      37.857  36.610  51.737  0.00  0.00     0.189 C 
ENDROOT
BRANCH   1  17
HETATM   17  C   UNK N   1      40.822  34.561  48.159  0.00  0.00     0.110 C 
HETATM   18  C   UNK N   1      42.015  33.787  48.765  0.00  0.00     0.029 C 
HETATM   19  C   UNK N   1      43.278  33.699  47.898  0.00  0.00     0.021 C 
HETATM   20  C   UNK N   1      43.060  33.154  46.487  0.00  0.00     0.117 C 
HETATM   21  N   UNK N   1      42.360  34.176  45.693  0.00  0.00    -0.412 N 
HETATM   22  C   UNK N   1      40.893  34.082  45.618  0.00  0.00     0.119 C 
HETATM   23  C   UNK N   1      40.206  33.795  46.965  0.00  0.00     0.047 C 
BRANCH  21  24
HETATM   24  C   UNK N   1      43.015  34.531  44.418  0.00  0.00     0.119 C 
BRANCH  24  25
HETATM   25  C   UNK N   1      42.022  34.703  43.256  0.00  0.00     0.045 C 
BRANCH  25  26
HETATM   26  C   UNK N   1      41.965  36.161  42.804  0.00  0.00     0.168 C 
BRANCH  26  27
HETATM   27  O   UNK N   1      40.714  36.704  43.168  0.00  0.00    -0.396 OA
HETATM   28  C   UNK N   1      39.698  36.099  42.402  0.00  0.00     0.201 C 
ENDBRANCH  26  27
ENDBRANCH  25  26
ENDBRANCH  24  25
ENDBRANCH  21  24
ENDBRANCH   1  17
BRANCH   4  29
HETATM   29  C   UNK N   1      36.491  33.998  50.498  0.00  0.00     0.272 C 
HETATM   30  O   UNK N   1      35.554  34.448  49.853  0.00  0.00    -0.266 OA
HETATM   31  N   UNK N   1      36.234  33.022  51.442  0.00  0.00    -0.343 N 
HETATM   32  C   UNK N   1      37.319  32.396  52.206  0.00  0.00     0.152 C 
HETATM   33  C   UNK N   1      34.863  32.492  51.518  0.00  0.00     0.152 C 
HETATM   34  C   UNK N   1      36.831  31.369  53.231  0.00  0.00     0.187 C 
HETATM   35  O   UNK N   1      35.783  30.591  52.694  0.00  0.00    -0.388 OA
HETATM   36  C   UNK N   1      34.658  31.440  52.610  0.00  0.00     0.187 C 
ENDBRANCH   4  29
TORSDOF 6
ENDMDL
MODEL 5
REMARK VINA RESULT:      -7.1      2.165      2.730
REMARK  6 active torsions:
REMARK  status: ('A' for Active; 'I' for Inactive)
REMARK    1  A    between atoms: O_2  and  C_3 
REMARK    2  A    between atoms: C_3  and  C_4 
REMARK    3  A    between atoms: C_4  and  C_5 
REMARK    4  A    between atoms: C_5  and  N_6 
REMARK    5  A    between atoms: C_10  and  N_11 
REMARK    6  A    between atoms: C_14  and  C_15 
REMARK       I    between atoms: C_15  and  N_17 
ROOT
HETATM    1  N   UNK N   1      40.531  35.192  49.077  0.00  0.00    -0.285 N 
HETATM    2  N   UNK N   1      39.258  34.846  49.232  0.00  0.00    -0.292 N 
ATOM      3  HN  UNK N   1      38.791  34.079  48.750  1.00  0.00     0.187 HD
HETATM    4  C   UNK N   1      38.683  35.672  50.130  0.00  0.00     0.126 A 
HETATM    5  C   UNK N   1      39.638  36.586  50.567  0.00  0.00     0.019 A 
HETATM    6  C   UNK N   1      40.820  36.238  49.902  0.00  0.00     0.072 A 
HETATM    7  C   UNK N   1      42.151  36.957  50.061  0.00  0.00     0.014 A 
HETATM    8  C   UNK N   1      43.396  36.343  49.783  0.00  0.00     0.015 A 
HETATM    9  C   UNK N   1      44.591  37.054  49.927  0.00  0.00     0.001 A 
HETATM   10  C   UNK N   1      44.575  38.379  50.361  0.00  0.00     0.002 A 
HETATM   11  C   UNK N   1      43.365  38.989  50.684  0.00  0.00     0.024 A 
HETATM   12  C   UNK N   1      42.167  38.280  50.548  0.00  0.00     0.072 A 
HETATM   13  S   UNK N   1      40.629  39.011  51.025  0.00  0.00     0.180 S 
HETATM   14  O   UNK N   1      40.080  39.857  49.865  0.00  0.00    -0.222 OA
HETATM   15  O   UNK N   1      40.821  40.050  52.140  0.00  0.00    -0.222 OA
HETATM   16  C   UNK N   1      39.433  37.756  51.498  0.00  0.00     0.189 C 
ENDROOT
BRANCH   1  17
HETATM   17  C   UNK N   1      41.377  34.600  48.027  0.00  0.00     0.110 C 
HETATM   18  C   UNK N   1      42.326  33.564  48.671  0.00  0.00     0.029 C 
HETATM   19  C   UNK N   1      43.444  33.017  47.774  0.00  0.00     0.021 C 
HETATM   20  C   UNK N   1      42.980  32.430  46.442  0.00  0.00     0.117 C 
HETATM   21  N   UNK N   1      42.561  33.536  45.565  0.00  0.00    -0.412 N 
HETATM   22  C   UNK N   1      41.130  33.880  45.554  0.00  0.00     0.119 C 
HETATM   23  C   UNK N   1      40.482  33.944  46.949  0.00  0.00     0.047 C 
BRANCH  21  24
HETATM   24  C   UNK N   1      43.204  33.553  44.235  0.00  0.00     0.119 C 
BRANCH  24  25
HETATM   25  C   UNK N   1      42.289  33.028  43.115  0.00  0.00     0.045 C 
BRANCH  25  26
HETATM   26  C   UNK N   1      42.431  31.515  42.964  0.00  0.00     0.168 C 
BRANCH  26  27
HETATM   27  O   UNK N   1      41.175  30.913  43.193  0.00  0.00    -0.396 OA
HETATM   28  C   UNK N   1      40.159  31.721  42.644  0.00  0.00     0.201 C 
ENDBRANCH  26  27
ENDBRANCH  25  26
ENDBRANCH  24  25
ENDBRANCH  21  24
ENDBRANCH   1  17
BRANCH   4  29
HETATM   29  C   UNK N   1      37.231  35.648  50.530  0.00  0.00     0.272 C 
HETATM   30  O   UNK N   1      36.578  36.666  50.340  0.00  0.00    -0.266 OA
HETATM   31  N   UNK N   1      36.594  34.544  51.061  0.00  0.00    -0.343 N 
HETATM   32  C   UNK N   1      37.304  33.275  51.255  0.00  0.00     0.152 C 
HETATM   33  C   UNK N   1      35.136  34.620  51.242  0.00  0.00     0.152 C 
HETATM   34  C   UNK N   1      36.441  32.183  51.894  0.00  0.00     0.187 C 
HETATM   35  O   UNK N   1      35.136  32.206  51.357  0.00  0.00    -0.388 OA
HETATM   36  C   UNK N   1      34.515  33.368  51.866  0.00  0.00     0.187 C 
ENDBRANCH   4  29
TORSDOF 6
ENDMDL
MODEL 6
REMARK VINA RESULT:      -7.0      2.264      7.685
REMARK  6 active torsions:
REMARK  status: ('A' for Active; 'I' for Inactive)
REMARK    1  A    between atoms: O_2  and  C_3 
REMARK    2  A    between atoms: C_3  and  C_4 
REMARK    3  A    between atoms: C_4  and  C_5 
REMARK    4  A    between atoms: C_5  and  N_6 
REMARK    5  A    between atoms: C_10  and  N_11 
REMARK    6  A    between atoms: C_14  and  C_15 
REMARK       I    between atoms: C_15  and  N_17 
ROOT
HETATM    1  N   UNK N   1      39.135  35.214  49.855  0.00  0.00    -0.285 N 
HETATM    2  N   UNK N   1      39.424  34.426  48.826  0.00  0.00    -0.292 N 
ATOM      3  HN  UNK N   1      38.877  33.619  48.528  1.00  0.00     0.187 HD
HETATM    4  C   UNK N   1      40.556  34.865  48.238  0.00  0.00     0.126 A 
HETATM    5  C   UNK N   1      41.007  35.986  48.928  0.00  0.00     0.019 A 
HETATM    6  C   UNK N   1      40.064  36.208  49.939  0.00  0.00     0.072 A 
HETATM    7  C   UNK N   1      40.129  37.336  50.958  0.00  0.00     0.014 A 
HETATM    8  C   UNK N   1      38.989  37.829  51.635  0.00  0.00     0.015 A 
HETATM    9  C   UNK N   1      39.107  38.856  52.577  0.00  0.00     0.001 A 
HETATM   10  C   UNK N   1      40.350  39.419  52.855  0.00  0.00     0.002 A 
HETATM   11  C   UNK N   1      41.481  38.980  52.167  0.00  0.00     0.024 A 
HETATM   12  C   UNK N   1      41.368  37.959  51.219  0.00  0.00     0.072 A 
HETATM   13  S   UNK N   1      42.775  37.441  50.282  0.00  0.00     0.180 S 
HETATM   14  O   UNK N   1      43.572  36.398  51.083  0.00  0.00    -0.222 OA
HETATM   15  O   UNK N   1      43.789  38.582  50.111  0.00  0.00    -0.222 OA
HETATM   16  C   UNK N   1      42.283  36.759  48.694  0.00  0.00     0.189 C 
ENDROOT
BRANCH   1  17
HETATM   17  C   UNK N   1      38.063  34.886  50.810  0.00  0.00     0.110 C 
HETATM   18  C   UNK N   1      36.870  35.839  50.571  0.00  0.00     0.029 C 
HETATM   19  C   UNK N   1      35.754  35.808  51.625  0.00  0.00     0.021 C 
HETATM   20  C   UNK N   1      35.173  34.426  51.915  0.00  0.00     0.117 C 
HETATM   21  N   UNK N   1      36.167  33.650  52.673  0.00  0.00    -0.412 N 
HETATM   22  C   UNK N   1      37.060  32.768  51.904  0.00  0.00     0.119 C 
HETATM   23  C   UNK N   1      37.644  33.408  50.633  0.00  0.00     0.047 C 
BRANCH  21  24
HETATM   24  C   UNK N   1      35.670  33.065  53.936  0.00  0.00     0.119 C 
BRANCH  24  25
HETATM   25  C   UNK N   1      36.093  33.865  55.179  0.00  0.00     0.045 C 
BRANCH  25  26
HETATM   26  C   UNK N   1      37.584  34.191  55.132  0.00  0.00     0.168 C 
BRANCH  26  27
HETATM   27  O   UNK N   1      38.317  32.987  55.186  0.00  0.00    -0.396 OA
HETATM   28  C   UNK N   1      38.234  32.442  56.483  0.00  0.00     0.201 C 
ENDBRANCH  26  27
ENDBRANCH  25  26
ENDBRANCH  24  25
ENDBRANCH  21  24
ENDBRANCH   1  17
BRANCH   4  29
HETATM   29  C   UNK N   1      41.248  34.201  47.077  0.00  0.00     0.272 C 
HETATM   30  O   UNK N   1      40.868  34.493  45.952  0.00  0.00    -0.266 OA
HETATM   31  N   UNK N   1      42.300  33.315  47.210  0.00  0.00    -0.343 N 
HETATM   32  C   UNK N   1      42.845  32.970  48.528  0.00  0.00     0.152 C 
HETATM   33  C   UNK N   1      42.983  32.881  45.981  0.00  0.00     0.152 C 
HETATM   34  C   UNK N   1      43.979  31.943  48.471  0.00  0.00     0.187 C 
HETATM   35  O   UNK N   1      44.835  32.210  47.382  0.00  0.00    -0.388 OA
HETATM   36  C   UNK N   1      44.114  31.876  46.215  0.00  0.00     0.187 C 
ENDBRANCH   4  29
TORSDOF 6
ENDMDL
MODEL 7
REMARK VINA RESULT:      -7.0      5.508      7.409
REMARK  6 active torsions:
REMARK  status: ('A' for Active; 'I' for Inactive)
REMARK    1  A    between atoms: O_2  and  C_3 
REMARK    2  A    between atoms: C_3  and  C_4 
REMARK    3  A    between atoms: C_4  and  C_5 
REMARK    4  A    between atoms: C_5  and  N_6 
REMARK    5  A    between atoms: C_10  and  N_11 
REMARK    6  A    between atoms: C_14  and  C_15 
REMARK       I    between atoms: C_15  and  N_17 
ROOT
HETATM    1  N   UNK N   1      40.705  38.729  53.702  0.00  0.00    -0.285 N 
HETATM    2  N   UNK N   1      39.490  38.646  54.230  0.00  0.00    -0.292 N 
ATOM      3  HN  UNK N   1      38.636  38.432  53.717  1.00  0.00     0.187 HD
HETATM    4  C   UNK N   1      39.566  38.890  55.555  0.00  0.00     0.126 A 
HETATM    5  C   UNK N   1      40.896  39.139  55.883  0.00  0.00     0.019 A 
HETATM    6  C   UNK N   1      41.609  38.999  54.686  0.00  0.00     0.072 A 
HETATM    7  C   UNK N   1      43.113  39.176  54.544  0.00  0.00     0.014 A 
HETATM    8  C   UNK N   1      43.863  38.588  53.497  0.00  0.00     0.015 A 
HETATM    9  C   UNK N   1      45.242  38.798  53.401  0.00  0.00     0.001 A 
HETATM   10  C   UNK N   1      45.903  39.580  54.345  0.00  0.00     0.002 A 
HETATM   11  C   UNK N   1      45.194  40.131  55.410  0.00  0.00     0.024 A 
HETATM   12  C   UNK N   1      43.815  39.919  55.515  0.00  0.00     0.072 A 
HETATM   13  S   UNK N   1      42.911  40.547  56.899  0.00  0.00     0.180 S 
HETATM   14  O   UNK N   1      42.510  42.006  56.634  0.00  0.00    -0.222 OA
HETATM   15  O   UNK N   1      43.800  40.662  58.147  0.00  0.00    -0.222 OA
HETATM   16  C   UNK N   1      41.450  39.551  57.225  0.00  0.00     0.189 C 
ENDROOT
BRANCH   1  17
HETATM   17  C   UNK N   1      40.926  38.697  52.246  0.00  0.00     0.110 C 
HETATM   18  C   UNK N   1      39.686  38.075  51.564  0.00  0.00     0.029 C 
HETATM   19  C   UNK N   1      39.827  37.740  50.073  0.00  0.00     0.021 C 
HETATM   20  C   UNK N   1      40.292  38.896  49.189  0.00  0.00     0.117 C 
HETATM   21  N   UNK N   1      41.717  39.148  49.460  0.00  0.00    -0.412 N 
HETATM   22  C   UNK N   1      42.040  40.188  50.450  0.00  0.00     0.119 C 
HETATM   23  C   UNK N   1      41.188  40.132  51.730  0.00  0.00     0.047 C 
BRANCH  21  24
HETATM   24  C   UNK N   1      42.587  39.150  48.266  0.00  0.00     0.119 C 
BRANCH  24  25
HETATM   25  C   UNK N   1      44.024  38.692  48.564  0.00  0.00     0.045 C 
BRANCH  25  26
HETATM   26  C   UNK N   1      44.032  37.280  49.148  0.00  0.00     0.168 C 
BRANCH  26  27
HETATM   27  O   UNK N   1      44.945  37.236  50.223  0.00  0.00    -0.396 OA
HETATM   28  C   UNK N   1      46.226  37.606  49.769  0.00  0.00     0.201 C 
ENDBRANCH  26  27
ENDBRANCH  25  26
ENDBRANCH  24  25
ENDBRANCH  21  24
ENDBRANCH   1  17
BRANCH   4  29
HETATM   29  C   UNK N   1      38.394  38.954  56.498  0.00  0.00     0.272 C 
HETATM   30  O   UNK N   1      38.104  37.934  57.107  0.00  0.00    -0.266 OA
HETATM   31  N   UNK N   1      37.657  40.098  56.736  0.00  0.00    -0.343 N 
HETATM   32  C   UNK N   1      37.991  41.370  56.084  0.00  0.00     0.152 C 
HETATM   33  C   UNK N   1      36.650  40.049  57.808  0.00  0.00     0.152 C 
HETATM   34  C   UNK N   1      37.034  42.510  56.442  0.00  0.00     0.187 C 
HETATM   35  O   UNK N   1      36.700  42.465  57.813  0.00  0.00    -0.388 OA
HETATM   36  C   UNK N   1      35.857  41.346  57.983  0.00  0.00     0.187 C 
ENDBRANCH   4  29
TORSDOF 6
ENDMDL
MODEL 8
REMARK VINA RESULT:      -7.0      5.020      7.002
REMARK  6 active torsions:
REMARK  status: ('A' for Active; 'I' for Inactive)
REMARK    1  A    between atoms: O_2  and  C_3 
REMARK    2  A    between atoms: C_3  and  C_4 
REMARK    3  A    between atoms: C_4  and  C_5 
REMARK    4  A    between atoms: C_5  and  N_6 
REMARK    5  A    between atoms: C_10  and  N_11 
REMARK    6  A    between atoms: C_14  and  C_15 
REMARK       I    between atoms: C_15  and  N_17 
ROOT
HETATM    1  N   UNK N   1      40.675  38.681  53.723  0.00  0.00    -0.285 N 
HETATM    2  N   UNK N   1      39.472  38.573  54.275  0.00  0.00    -0.292 N 
ATOM      3  HN  UNK N   1      38.611  38.350  53.777  1.00  0.00     0.187 HD
HETATM    4  C   UNK N   1      39.572  38.806  55.600  0.00  0.00     0.126 A 
HETATM    5  C   UNK N   1      40.904  39.073  55.903  0.00  0.00     0.019 A 
HETATM    6  C   UNK N   1      41.595  38.956  54.691  0.00  0.00     0.072 A 
HETATM    7  C   UNK N   1      43.092  39.159  54.519  0.00  0.00     0.014 A 
HETATM    8  C   UNK N   1      43.829  38.593  53.452  0.00  0.00     0.015 A 
HETATM    9  C   UNK N   1      45.203  38.826  53.329  0.00  0.00     0.001 A 
HETATM   10  C   UNK N   1      45.871  39.611  54.267  0.00  0.00     0.002 A 
HETATM   11  C   UNK N   1      45.175  40.140  55.352  0.00  0.00     0.024 A 
HETATM   12  C   UNK N   1      43.803  39.905  55.483  0.00  0.00     0.072 A 
HETATM   13  S   UNK N   1      42.917  40.505  56.891  0.00  0.00     0.180 S 
HETATM   14  O   UNK N   1      42.487  41.960  56.647  0.00  0.00    -0.222 OA
HETATM   15  O   UNK N   1      43.829  40.623  58.121  0.00  0.00    -0.222 OA
HETATM   16  C   UNK N   1      41.480  39.483  57.237  0.00  0.00     0.189 C 
ENDROOT
BRANCH   1  17
HETATM   17  C   UNK N   1      40.866  38.666  52.263  0.00  0.00     0.110 C 
HETATM   18  C   UNK N   1      39.604  38.071  51.597  0.00  0.00     0.029 C 
HETATM   19  C   UNK N   1      39.710  37.755  50.100  0.00  0.00     0.021 C 
HETATM   20  C   UNK N   1      40.174  38.916  49.222  0.00  0.00     0.117 C 
HETATM   21  N   UNK N   1      41.608  39.144  49.467  0.00  0.00    -0.412 N 
HETATM   22  C   UNK N   1      41.965  40.165  50.464  0.00  0.00     0.119 C 
HETATM   23  C   UNK N   1      41.139  40.103  51.761  0.00  0.00     0.047 C 
BRANCH  21  24
HETATM   24  C   UNK N   1      42.453  39.150  48.256  0.00  0.00     0.119 C 
BRANCH  24  25
HETATM   25  C   UNK N   1      43.915  38.762  48.537  0.00  0.00     0.045 C 
BRANCH  25  26
HETATM   26  C   UNK N   1      44.000  37.349  49.111  0.00  0.00     0.168 C 
BRANCH  26  27
HETATM   27  O   UNK N   1      45.356  37.025  49.328  0.00  0.00    -0.396 OA
HETATM   28  C   UNK N   1      46.113  38.209  49.430  0.00  0.00     0.201 C 
ENDBRANCH  26  27
ENDBRANCH  25  26
ENDBRANCH  24  25
ENDBRANCH  21  24
ENDBRANCH   1  17
BRANCH   4  29
HETATM   29  C   UNK N   1      38.419  38.843  56.567  0.00  0.00     0.272 C 
HETATM   30  O   UNK N   1      37.857  39.918  56.734  0.00  0.00    -0.266 OA
HETATM   31  N   UNK N   1      37.942  37.737  57.243  0.00  0.00    -0.343 N 
HETATM   32  C   UNK N   1      38.531  36.408  57.041  0.00  0.00     0.152 C 
HETATM   33  C   UNK N   1      36.704  37.896  58.023  0.00  0.00     0.152 C 
HETATM   34  C   UNK N   1      37.895  35.319  57.910  0.00  0.00     0.187 C 
HETATM   35  O   UNK N   1      36.495  35.489  57.971  0.00  0.00    -0.388 OA
HETATM   36  C   UNK N   1      36.265  36.633  58.766  0.00  0.00     0.187 C 
ENDBRANCH   4  29
TORSDOF 6
ENDMDL
MODEL 9
REMARK VINA RESULT:      -6.9      5.482      7.862
REMARK  6 active torsions:
REMARK  status: ('A' for Active; 'I' for Inactive)
REMARK    1  A    between atoms: O_2  and  C_3 
REMARK    2  A    between atoms: C_3  and  C_4 
REMARK    3  A    between atoms: C_4  and  C_5 
REMARK    4  A    between atoms: C_5  and  N_6 
REMARK    5  A    between atoms: C_10  and  N_11 
REMARK    6  A    between atoms: C_14  and  C_15 
REMARK       I    between atoms: C_15  and  N_17 
ROOT
HETATM    1  N   UNK N   1      41.619  40.054  54.005  0.00  0.00    -0.285 N 
HETATM    2  N   UNK N   1      41.224  40.458  55.206  0.00  0.00    -0.292 N 
ATOM      3  HN  UNK N   1      41.837  40.793  55.948  1.00  0.00     0.187 HD
HETATM    4  C   UNK N   1      39.881  40.355  55.287  0.00  0.00     0.126 A 
HETATM    5  C   UNK N   1      39.401  39.861  54.077  0.00  0.00     0.019 A 
HETATM    6  C   UNK N   1      40.529  39.706  53.262  0.00  0.00     0.072 A 
HETATM    7  C   UNK N   1      40.505  39.192  51.831  0.00  0.00     0.014 A 
HETATM    8  C   UNK N   1      41.523  39.480  50.891  0.00  0.00     0.015 A 
HETATM    9  C   UNK N   1      41.462  38.966  49.592  0.00  0.00     0.001 A 
HETATM   10  C   UNK N   1      40.389  38.170  49.199  0.00  0.00     0.002 A 
HETATM   11  C   UNK N   1      39.352  37.910  50.093  0.00  0.00     0.024 A 
HETATM   12  C   UNK N   1      39.404  38.428  51.391  0.00  0.00     0.072 A 
HETATM   13  S   UNK N   1      38.064  38.172  52.517  0.00  0.00     0.180 S 
HETATM   14  O   UNK N   1      38.231  36.815  53.217  0.00  0.00    -0.222 OA
HETATM   15  O   UNK N   1      36.729  38.008  51.774  0.00  0.00    -0.222 OA
HETATM   16  C   UNK N   1      37.978  39.492  53.734  0.00  0.00     0.189 C 
ENDROOT
BRANCH   1  17
HETATM   17  C   UNK N   1      43.042  39.872  53.673  0.00  0.00     0.110 C 
HETATM   18  C   UNK N   1      43.897  40.708  54.653  0.00  0.00     0.029 C 
HETATM   19  C   UNK N   1      45.388  40.834  54.317  0.00  0.00     0.021 C 
HETATM   20  C   UNK N   1      46.120  39.511  54.102  0.00  0.00     0.117 C 
HETATM   21  N   UNK N   1      45.686  38.940  52.816  0.00  0.00    -0.412 N 
HETATM   22  C   UNK N   1      44.584  37.965  52.851  0.00  0.00     0.119 C 
HETATM   23  C   UNK N   1      43.406  38.371  53.754  0.00  0.00     0.047 C 
BRANCH  21  24
HETATM   24  C   UNK N   1      46.782  38.591  51.888  0.00  0.00     0.119 C 
BRANCH  24  25
HETATM   25  C   UNK N   1      46.361  37.575  50.812  0.00  0.00     0.045 C 
BRANCH  25  26
HETATM   26  C   UNK N   1      46.210  38.258  49.454  0.00  0.00     0.168 C 
BRANCH  26  27
HETATM   27  O   UNK N   1      44.861  38.173  49.048  0.00  0.00    -0.396 OA
HETATM   28  C   UNK N   1      44.405  36.849  49.201  0.00  0.00     0.201 C 
ENDBRANCH  26  27
ENDBRANCH  25  26
ENDBRANCH  24  25
ENDBRANCH  21  24
ENDBRANCH   1  17
BRANCH   4  29
HETATM   29  C   UNK N   1      39.057  40.653  56.511  0.00  0.00     0.272 C 
HETATM   30  O   UNK N   1      39.130  39.867  57.446  0.00  0.00    -0.266 OA
HETATM   31  N   UNK N   1      38.258  41.771  56.651  0.00  0.00    -0.343 N 
HETATM   32  C   UNK N   1      38.174  42.785  55.593  0.00  0.00     0.152 C 
HETATM   33  C   UNK N   1      37.647  42.013  57.967  0.00  0.00     0.152 C 
HETATM   34  C   UNK N   1      37.206  43.926  55.914  0.00  0.00     0.187 C 
HETATM   35  O   UNK N   1      37.318  44.304  57.270  0.00  0.00    -0.388 OA
HETATM   36  C   UNK N   1      36.752  43.253  58.025  0.00  0.00     0.187 C 
ENDBRANCH   4  29
TORSDOF 6
ENDMDL
