MODEL 1
REMARK VINA RESULT:      -8.8      0.000      0.000
REMARK  5 active torsions:
REMARK  status: ('A' for Active; 'I' for Inactive)
REMARK    1  A    between atoms: C_2  and  C_3 
REMARK       I    between atoms: C_2  and  N_34 
REMARK    2  A    between atoms: N_6  and  C_7 
REMARK    3  A    between atoms: N_11  and  C_12 
REMARK    4  A    between atoms: C_12  and  C_13 
REMARK    5  A    between atoms: C_13  and  C_14 
ROOT
HETATM    1  C   UNK N   1      40.615  38.291  49.885  0.00  0.00     0.126 A 
HETATM    2  N   UNK N   1      41.160  37.247  49.235  0.00  0.00    -0.292 N 
ATOM      3  HN  UNK N   1      40.712  36.722  48.485  1.00  0.00     0.187 HD
HETATM    4  N   UNK N   1      42.367  37.006  49.722  0.00  0.00    -0.284 N 
HETATM    5  C   UNK N   1      42.658  37.935  50.679  0.00  0.00     0.074 A 
HETATM    6  C   UNK N   1      41.522  38.746  50.834  0.00  0.00     0.019 A 
HETATM    7  C   UNK N   1      41.306  39.871  51.815  0.00  0.00     0.191 C 
HETATM    8  S   UNK N   1      42.511  39.669  53.141  0.00  0.00     0.196 S 
HETATM    9  O   UNK N   1      41.908  38.818  54.269  0.00  0.00    -0.221 OA
HETATM   10  O   UNK N   1      42.800  40.998  53.855  0.00  0.00    -0.221 OA
HETATM   11  C   UNK N   1      44.005  38.909  52.593  0.00  0.00     0.141 A 
HETATM   12  N   UNK N   1      45.167  39.126  53.264  0.00  0.00    -0.356 N 
ATOM     13  HN  UNK N   1      45.153  39.680  54.120  1.00  0.00     0.166 HD
HETATM   14  C   UNK N   1      46.348  38.624  52.820  0.00  0.00     0.089 A 
HETATM   15  C   UNK N   1      46.391  37.898  51.636  0.00  0.00     0.018 A 
HETATM   16  C   UNK N   1      45.212  37.657  50.931  0.00  0.00     0.018 A 
HETATM   17  C   UNK N   1      43.973  38.133  51.417  0.00  0.00     0.031 A 
ENDROOT
BRANCH   4  18
HETATM   18  C   UNK N   1      43.142  35.839  49.275  0.00  0.00     0.137 C 
HETATM   19  C   UNK N   1      42.637  34.547  49.978  0.00  0.00     0.031 C 
HETATM   20  C   UNK N   1      43.064  33.342  49.147  0.00  0.00     0.032 C 
HETATM   21  C   UNK N   1      42.300  33.388  47.799  0.00  0.00     0.272 C 
HETATM   22  N   UNK N   1      42.087  34.775  47.297  0.00  0.00     0.090 N 
HETATM   23  C   UNK N   1      43.135  35.709  47.730  0.00  0.00     0.299 C 
BRANCH  22  24
HETATM   24  C   UNK N   1      41.763  34.833  45.855  0.00  0.00     0.273 C 
BRANCH  24  25
HETATM   25  C   UNK N   1      42.778  34.090  44.952  0.00  0.00     0.035 C 
BRANCH  25  26
HETATM   26  C   UNK N   1      42.092  33.306  43.815  0.00  0.00    -0.009 C 
HETATM   27  C   UNK N   1      42.832  32.010  43.471  0.00  0.00     0.031 C 
HETATM   28  C   UNK N   1      41.933  31.228  42.469  0.00  0.00     0.168 C 
HETATM   29  O   UNK N   1      41.269  32.031  41.486  0.00  0.00    -0.391 OA
HETATM   30  C   UNK N   1      41.951  33.243  41.257  0.00  0.00     0.168 C 
HETATM   31  C   UNK N   1      41.936  34.140  42.514  0.00  0.00     0.031 C 
ENDBRANCH  25  26
ENDBRANCH  24  25
ENDBRANCH  22  24
ENDBRANCH   4  18
BRANCH   1  32
HETATM   32  C   UNK N   1      39.293  38.890  49.523  0.00  0.00     0.272 C 
HETATM   33  O   UNK N   1      39.282  39.757  48.661  0.00  0.00    -0.266 OA
HETATM   34  N   UNK N   1      38.098  38.430  50.043  0.00  0.00    -0.343 N 
HETATM   35  C   UNK N   1      36.823  38.787  49.430  0.00  0.00     0.152 C 
HETATM   36  C   UNK N   1      38.007  37.601  51.240  0.00  0.00     0.152 C 
HETATM   37  C   UNK N   1      35.891  39.366  50.499  0.00  0.00     0.187 C 
HETATM   38  O   UNK N   1      35.760  38.461  51.583  0.00  0.00    -0.388 OA
HETATM   39  C   UNK N   1      37.021  38.278  52.205  0.00  0.00     0.187 C 
ENDBRANCH   1  32
TORSDOF 5
ENDMDL
MODEL 2
REMARK VINA RESULT:      -8.6      4.566      8.357
REMARK  5 active torsions:
REMARK  status: ('A' for Active; 'I' for Inactive)
REMARK    1  A    between atoms: C_2  and  C_3 
REMARK       I    between atoms: C_2  and  N_34 
REMARK    2  A    between atoms: N_6  and  C_7 
REMARK    3  A    between atoms: N_11  and  C_12 
REMARK    4  A    between atoms: C_12  and  C_13 
REMARK    5  A    between atoms: C_13  and  C_14 
ROOT
HETATM    1  C   UNK N   1      39.527  39.131  52.893  0.00  0.00     0.126 A 
HETATM    2  N   UNK N   1      40.582  38.927  52.084  0.00  0.00    -0.292 N 
ATOM      3  HN  UNK N   1      41.495  39.370  52.185  1.00  0.00     0.187 HD
HETATM    4  N   UNK N   1      40.252  38.063  51.138  0.00  0.00    -0.284 N 
HETATM    5  C   UNK N   1      38.971  37.640  51.344  0.00  0.00     0.074 A 
HETATM    6  C   UNK N   1      38.467  38.353  52.445  0.00  0.00     0.019 A 
HETATM    7  C   UNK N   1      37.077  38.307  53.029  0.00  0.00     0.191 C 
HETATM    8  S   UNK N   1      35.986  37.615  51.772  0.00  0.00     0.196 S 
HETATM    9  O   UNK N   1      35.389  38.745  50.920  0.00  0.00    -0.221 OA
HETATM   10  O   UNK N   1      34.733  36.979  52.393  0.00  0.00    -0.221 OA
HETATM   11  C   UNK N   1      36.810  36.476  50.707  0.00  0.00     0.141 A 
HETATM   12  N   UNK N   1      36.105  35.506  50.067  0.00  0.00    -0.356 N 
ATOM     13  HN  UNK N   1      35.089  35.485  50.160  1.00  0.00     0.166 HD
HETATM   14  C   UNK N   1      36.720  34.564  49.308  0.00  0.00     0.089 A 
HETATM   15  C   UNK N   1      38.106  34.558  49.200  0.00  0.00     0.018 A 
HETATM   16  C   UNK N   1      38.852  35.543  49.843  0.00  0.00     0.018 A 
HETATM   17  C   UNK N   1      38.213  36.558  50.592  0.00  0.00     0.031 A 
ENDROOT
BRANCH   4  18
HETATM   18  C   UNK N   1      41.183  37.748  50.044  0.00  0.00     0.137 C 
HETATM   19  C   UNK N   1      41.364  38.980  49.112  0.00  0.00     0.031 C 
HETATM   20  C   UNK N   1      42.670  38.820  48.342  0.00  0.00     0.032 C 
HETATM   21  C   UNK N   1      43.842  38.908  49.354  0.00  0.00     0.272 C 
HETATM   22  N   UNK N   1      43.518  38.304  50.676  0.00  0.00     0.090 N 
HETATM   23  C   UNK N   1      42.535  37.215  50.583  0.00  0.00     0.299 C 
BRANCH  22  24
HETATM   24  C   UNK N   1      44.715  37.990  51.487  0.00  0.00     0.273 C 
BRANCH  24  25
HETATM   25  C   UNK N   1      44.450  37.948  53.011  0.00  0.00     0.035 C 
BRANCH  25  26
HETATM   26  C   UNK N   1      43.856  39.267  53.544  0.00  0.00    -0.009 C 
HETATM   27  C   UNK N   1      44.936  40.304  53.869  0.00  0.00     0.031 C 
HETATM   28  C   UNK N   1      44.200  41.637  54.192  0.00  0.00     0.168 C 
HETATM   29  O   UNK N   1      42.994  41.503  54.953  0.00  0.00    -0.391 OA
HETATM   30  C   UNK N   1      42.989  40.317  55.715  0.00  0.00     0.168 C 
HETATM   31  C   UNK N   1      42.973  39.068  54.806  0.00  0.00     0.031 C 
ENDBRANCH  25  26
ENDBRANCH  24  25
ENDBRANCH  22  24
ENDBRANCH   4  18
BRANCH   1  32
HETATM   32  C   UNK N   1      39.581  39.980  54.122  0.00  0.00     0.272 C 
HETATM   33  O   UNK N   1      39.791  41.176  53.975  0.00  0.00    -0.266 OA
HETATM   34  N   UNK N   1      39.300  39.488  55.383  0.00  0.00    -0.343 N 
HETATM   35  C   UNK N   1      39.025  40.387  56.499  0.00  0.00     0.152 C 
HETATM   36  C   UNK N   1      39.292  38.066  55.709  0.00  0.00     0.152 C 
HETATM   37  C   UNK N   1      39.938  40.030  57.676  0.00  0.00     0.187 C 
HETATM   38  O   UNK N   1      39.798  38.658  58.011  0.00  0.00    -0.388 OA
HETATM   39  C   UNK N   1      40.216  37.857  56.919  0.00  0.00     0.187 C 
ENDBRANCH   1  32
TORSDOF 5
ENDMDL
MODEL 3
REMARK VINA RESULT:      -8.6      3.502      8.123
REMARK  5 active torsions:
REMARK  status: ('A' for Active; 'I' for Inactive)
REMARK    1  A    between atoms: C_2  and  C_3 
REMARK       I    between atoms: C_2  and  N_34 
REMARK    2  A    between atoms: N_6  and  C_7 
REMARK    3  A    between atoms: N_11  and  C_12 
REMARK    4  A    between atoms: C_12  and  C_13 
REMARK    5  A    between atoms: C_13  and  C_14 
ROOT
HETATM    1  C   UNK N   1      41.373  38.870  51.324  0.00  0.00     0.126 A 
HETATM    2  N   UNK N   1      42.110  39.593  52.186  0.00  0.00    -0.292 N 
ATOM      3  HN  UNK N   1      43.085  39.858  52.049  1.00  0.00     0.187 HD
HETATM    4  N   UNK N   1      41.374  39.906  53.241  0.00  0.00    -0.284 N 
HETATM    5  C   UNK N   1      40.107  39.431  53.061  0.00  0.00     0.074 A 
HETATM    6  C   UNK N   1      40.097  38.716  51.851  0.00  0.00     0.019 A 
HETATM    7  C   UNK N   1      38.961  37.938  51.237  0.00  0.00     0.191 C 
HETATM    8  S   UNK N   1      37.774  37.591  52.549  0.00  0.00     0.196 S 
HETATM    9  O   UNK N   1      38.100  36.240  53.203  0.00  0.00    -0.221 OA
HETATM   10  O   UNK N   1      36.363  37.350  51.991  0.00  0.00    -0.221 OA
HETATM   11  C   UNK N   1      37.755  38.836  53.797  0.00  0.00     0.141 A 
HETATM   12  N   UNK N   1      36.642  39.029  54.553  0.00  0.00    -0.356 N 
ATOM     13  HN  UNK N   1      35.844  38.406  54.433  1.00  0.00     0.166 HD
HETATM   14  C   UNK N   1      36.566  40.033  55.463  0.00  0.00     0.089 A 
HETATM   15  C   UNK N   1      37.632  40.913  55.614  0.00  0.00     0.018 A 
HETATM   16  C   UNK N   1      38.787  40.735  54.854  0.00  0.00     0.018 A 
HETATM   17  C   UNK N   1      38.890  39.659  53.942  0.00  0.00     0.031 A 
ENDROOT
BRANCH   4  18
HETATM   18  C   UNK N   1      41.966  40.594  54.398  0.00  0.00     0.137 C 
HETATM   19  C   UNK N   1      41.995  39.652  55.635  0.00  0.00     0.031 C 
HETATM   20  C   UNK N   1      43.043  40.168  56.614  0.00  0.00     0.032 C 
HETATM   21  C   UNK N   1      44.439  40.009  55.957  0.00  0.00     0.272 C 
HETATM   22  N   UNK N   1      44.420  40.236  54.485  0.00  0.00     0.090 N 
HETATM   23  C   UNK N   1      43.366  41.169  54.063  0.00  0.00     0.299 C 
BRANCH  22  24
HETATM   24  C   UNK N   1      45.757  40.515  53.918  0.00  0.00     0.273 C 
BRANCH  24  25
HETATM   25  C   UNK N   1      46.792  39.390  54.164  0.00  0.00     0.035 C 
BRANCH  25  26
HETATM   26  C   UNK N   1      46.978  38.479  52.934  0.00  0.00    -0.009 C 
HETATM   27  C   UNK N   1      48.051  39.005  51.975  0.00  0.00     0.031 C 
HETATM   28  C   UNK N   1      48.279  37.901  50.902  0.00  0.00     0.168 C 
HETATM   29  O   UNK N   1      47.097  37.227  50.455  0.00  0.00    -0.391 OA
HETATM   30  C   UNK N   1      45.946  38.021  50.634  0.00  0.00     0.168 C 
HETATM   31  C   UNK N   1      45.665  38.271  52.132  0.00  0.00     0.031 C 
ENDBRANCH  25  26
ENDBRANCH  24  25
ENDBRANCH  22  24
ENDBRANCH   4  18
BRANCH   1  32
HETATM   32  C   UNK N   1      41.868  38.429  49.984  0.00  0.00     0.272 C 
HETATM   33  O   UNK N   1      41.734  39.205  49.048  0.00  0.00    -0.266 OA
HETATM   34  N   UNK N   1      42.554  37.244  49.794  0.00  0.00    -0.343 N 
HETATM   35  C   UNK N   1      43.314  37.001  48.572  0.00  0.00     0.152 C 
HETATM   36  C   UNK N   1      42.547  36.147  50.755  0.00  0.00     0.152 C 
HETATM   37  C   UNK N   1      42.881  35.664  47.962  0.00  0.00     0.187 C 
HETATM   38  O   UNK N   1      43.004  34.622  48.918  0.00  0.00    -0.388 OA
HETATM   39  C   UNK N   1      42.131  34.870  50.007  0.00  0.00     0.187 C 
ENDBRANCH   1  32
TORSDOF 5
ENDMDL
MODEL 4
REMARK VINA RESULT:      -8.6      3.958      6.107
REMARK  5 active torsions:
REMARK  status: ('A' for Active; 'I' for Inactive)
REMARK    1  A    between atoms: C_2  and  C_3 
REMARK       I    between atoms: C_2  and  N_34 
REMARK    2  A    between atoms: N_6  and  C_7 
REMARK    3  A    between atoms: N_11  and  C_12 
REMARK    4  A    between atoms: C_12  and  C_13 
REMARK    5  A    between atoms: C_13  and  C_14 
ROOT
HETATM    1  C   UNK N   1      42.117  39.334  52.556  0.00  0.00     0.126 A 
HETATM    2  N   UNK N   1      41.711  38.548  51.543  0.00  0.00    -0.292 N 
ATOM      3  HN  UNK N   1      40.740  38.384  51.278  1.00  0.00     0.187 HD
HETATM    4  N   UNK N   1      42.767  38.018  50.946  0.00  0.00    -0.284 N 
HETATM    5  C   UNK N   1      43.902  38.497  51.533  0.00  0.00     0.074 A 
HETATM    6  C   UNK N   1      43.505  39.312  52.607  0.00  0.00     0.019 A 
HETATM    7  C   UNK N   1      44.377  40.017  53.614  0.00  0.00     0.191 C 
HETATM    8  S   UNK N   1      45.993  39.219  53.582  0.00  0.00     0.196 S 
HETATM    9  O   UNK N   1      46.036  38.084  54.617  0.00  0.00    -0.221 OA
HETATM   10  O   UNK N   1      47.102  40.156  54.082  0.00  0.00    -0.221 OA
HETATM   11  C   UNK N   1      46.393  38.556  51.997  0.00  0.00     0.141 A 
HETATM   12  N   UNK N   1      47.693  38.389  51.635  0.00  0.00    -0.356 N 
ATOM     13  HN  UNK N   1      48.429  38.590  52.312  1.00  0.00     0.166 HD
HETATM   14  C   UNK N   1      48.035  37.960  50.394  0.00  0.00     0.089 A 
HETATM   15  C   UNK N   1      47.046  37.716  49.448  0.00  0.00     0.018 A 
HETATM   16  C   UNK N   1      45.706  37.877  49.794  0.00  0.00     0.018 A 
HETATM   17  C   UNK N   1      45.342  38.272  51.102  0.00  0.00     0.031 A 
ENDROOT
BRANCH   4  18
HETATM   18  C   UNK N   1      42.608  37.020  49.878  0.00  0.00     0.137 C 
HETATM   19  C   UNK N   1      42.897  35.591  50.420  0.00  0.00     0.031 C 
HETATM   20  C   UNK N   1      42.239  34.576  49.492  0.00  0.00     0.032 C 
HETATM   21  C   UNK N   1      40.701  34.743  49.605  0.00  0.00     0.272 C 
HETATM   22  N   UNK N   1      40.281  36.159  49.803  0.00  0.00     0.090 N 
HETATM   23  C   UNK N   1      41.216  37.123  49.205  0.00  0.00     0.299 C 
BRANCH  22  24
HETATM   24  C   UNK N   1      38.857  36.398  49.485  0.00  0.00     0.273 C 
BRANCH  24  25
HETATM   25  C   UNK N   1      37.992  36.769  50.714  0.00  0.00     0.035 C 
BRANCH  25  26
HETATM   26  C   UNK N   1      37.372  38.176  50.596  0.00  0.00    -0.009 C 
HETATM   27  C   UNK N   1      35.932  38.226  51.115  0.00  0.00     0.031 C 
HETATM   28  C   UNK N   1      35.508  39.723  51.130  0.00  0.00     0.168 C 
HETATM   29  O   UNK N   1      35.963  40.501  50.017  0.00  0.00    -0.391 OA
HETATM   30  C   UNK N   1      36.214  39.695  48.888  0.00  0.00     0.168 C 
HETATM   31  C   UNK N   1      37.388  38.724  49.143  0.00  0.00     0.031 C 
ENDBRANCH  25  26
ENDBRANCH  24  25
ENDBRANCH  22  24
ENDBRANCH   4  18
BRANCH   1  32
HETATM   32  C   UNK N   1      41.185  40.161  53.383  0.00  0.00     0.272 C 
HETATM   33  O   UNK N   1      40.654  41.123  52.847  0.00  0.00    -0.266 OA
HETATM   34  N   UNK N   1      40.829  39.817  54.674  0.00  0.00    -0.343 N 
HETATM   35  C   UNK N   1      39.678  40.432  55.327  0.00  0.00     0.152 C 
HETATM   36  C   UNK N   1      41.575  38.864  55.489  0.00  0.00     0.152 C 
HETATM   37  C   UNK N   1      40.107  41.000  56.684  0.00  0.00     0.187 C 
HETATM   38  O   UNK N   1      40.726  39.992  57.467  0.00  0.00    -0.388 OA
HETATM   39  C   UNK N   1      41.909  39.549  56.824  0.00  0.00     0.187 C 
ENDBRANCH   1  32
TORSDOF 5
ENDMDL
MODEL 5
REMARK VINA RESULT:      -8.5      4.790      8.517
REMARK  5 active torsions:
REMARK  status: ('A' for Active; 'I' for Inactive)
REMARK    1  A    between atoms: C_2  and  C_3 
REMARK       I    between atoms: C_2  and  N_34 
REMARK    2  A    between atoms: N_6  and  C_7 
REMARK    3  A    between atoms: N_11  and  C_12 
REMARK    4  A    between atoms: C_12  and  C_13 
REMARK    5  A    between atoms: C_13  and  C_14 
ROOT
HETATM    1  C   UNK N   1      37.893  36.478  52.811  0.00  0.00     0.126 A 
HETATM    2  N   UNK N   1      38.899  36.447  51.919  0.00  0.00    -0.292 N 
ATOM      3  HN  UNK N   1      39.733  35.865  51.993  1.00  0.00     0.187 HD
HETATM    4  N   UNK N   1      38.640  37.291  50.933  0.00  0.00    -0.284 N 
HETATM    5  C   UNK N   1      37.416  37.858  51.138  0.00  0.00     0.074 A 
HETATM    6  C   UNK N   1      36.936  37.384  52.370  0.00  0.00     0.019 A 
HETATM    7  C   UNK N   1      35.664  37.764  53.085  0.00  0.00     0.191 C 
HETATM    8  S   UNK N   1      35.106  39.334  52.396  0.00  0.00     0.196 S 
HETATM    9  O   UNK N   1      35.691  40.498  53.210  0.00  0.00    -0.221 OA
HETATM   10  O   UNK N   1      33.595  39.533  52.583  0.00  0.00    -0.221 OA
HETATM   11  C   UNK N   1      35.565  39.536  50.705  0.00  0.00     0.141 A 
HETATM   12  N   UNK N   1      34.843  40.355  49.895  0.00  0.00    -0.356 N 
ATOM     13  HN  UNK N   1      34.075  40.897  50.290  1.00  0.00     0.166 HD
HETATM   14  C   UNK N   1      35.119  40.468  48.571  0.00  0.00     0.089 A 
HETATM   15  C   UNK N   1      36.140  39.709  48.009  0.00  0.00     0.018 A 
HETATM   16  C   UNK N   1      36.898  38.865  48.818  0.00  0.00     0.018 A 
HETATM   17  C   UNK N   1      36.648  38.784  50.208  0.00  0.00     0.031 A 
ENDROOT
BRANCH   4  18
HETATM   18  C   UNK N   1      39.632  37.547  49.878  0.00  0.00     0.137 C 
HETATM   19  C   UNK N   1      39.855  39.076  49.700  0.00  0.00     0.031 C 
HETATM   20  C   UNK N   1      41.202  39.295  49.022  0.00  0.00     0.032 C 
HETATM   21  C   UNK N   1      42.316  38.841  50.000  0.00  0.00     0.272 C 
HETATM   22  N   UNK N   1      41.924  37.662  50.823  0.00  0.00     0.090 N 
HETATM   23  C   UNK N   1      40.956  36.787  50.146  0.00  0.00     0.299 C 
BRANCH  22  24
HETATM   24  C   UNK N   1      43.077  36.959  51.427  0.00  0.00     0.273 C 
BRANCH  24  25
HETATM   25  C   UNK N   1      44.311  37.863  51.663  0.00  0.00     0.035 C 
BRANCH  25  26
HETATM   26  C   UNK N   1      44.393  38.384  53.113  0.00  0.00    -0.009 C 
HETATM   27  C   UNK N   1      43.374  39.493  53.393  0.00  0.00     0.031 C 
HETATM   28  C   UNK N   1      43.423  39.776  54.922  0.00  0.00     0.168 C 
HETATM   29  O   UNK N   1      44.729  39.750  55.510  0.00  0.00    -0.391 OA
HETATM   30  C   UNK N   1      45.732  40.021  54.558  0.00  0.00     0.168 C 
HETATM   31  C   UNK N   1      45.805  38.909  53.488  0.00  0.00     0.031 C 
ENDBRANCH  25  26
ENDBRANCH  24  25
ENDBRANCH  22  24
ENDBRANCH   4  18
BRANCH   1  32
HETATM   32  C   UNK N   1      37.818  35.578  54.003  0.00  0.00     0.272 C 
HETATM   33  O   UNK N   1      37.479  34.418  53.817  0.00  0.00    -0.266 OA
HETATM   34  N   UNK N   1      38.216  35.977  55.266  0.00  0.00    -0.343 N 
HETATM   35  C   UNK N   1      38.457  35.001  56.324  0.00  0.00     0.152 C 
HETATM   36  C   UNK N   1      38.387  37.374  55.652  0.00  0.00     0.152 C 
HETATM   37  C   UNK N   1      37.650  35.389  57.566  0.00  0.00     0.187 C 
HETATM   38  O   UNK N   1      37.948  36.722  57.952  0.00  0.00    -0.388 OA
HETATM   39  C   UNK N   1      37.556  37.614  56.922  0.00  0.00     0.187 C 
ENDBRANCH   1  32
TORSDOF 5
ENDMDL
MODEL 6
REMARK VINA RESULT:      -8.5      3.409      6.587
REMARK  5 active torsions:
REMARK  status: ('A' for Active; 'I' for Inactive)
REMARK    1  A    between atoms: C_2  and  C_3 
REMARK       I    between atoms: C_2  and  N_34 
REMARK    2  A    between atoms: N_6  and  C_7 
REMARK    3  A    between atoms: N_11  and  C_12 
REMARK    4  A    between atoms: C_12  and  C_13 
REMARK    5  A    between atoms: C_13  and  C_14 
ROOT
HETATM    1  C   UNK N   1      37.835  36.346  52.585  0.00  0.00     0.126 A 
HETATM    2  N   UNK N   1      38.846  36.397  51.700  0.00  0.00    -0.292 N 
ATOM      3  HN  UNK N   1      39.684  35.817  51.731  1.00  0.00     0.187 HD
HETATM    4  N   UNK N   1      38.585  37.317  50.786  0.00  0.00    -0.284 N 
HETATM    5  C   UNK N   1      37.356  37.857  51.030  0.00  0.00     0.074 A 
HETATM    6  C   UNK N   1      36.873  37.278  52.216  0.00  0.00     0.019 A 
HETATM    7  C   UNK N   1      35.594  37.588  52.952  0.00  0.00     0.191 C 
HETATM    8  S   UNK N   1      35.028  39.206  52.392  0.00  0.00     0.196 S 
HETATM    9  O   UNK N   1      35.600  40.303  53.303  0.00  0.00    -0.221 OA
HETATM   10  O   UNK N   1      33.514  39.378  52.586  0.00  0.00    -0.221 OA
HETATM   11  C   UNK N   1      35.495  39.551  50.726  0.00  0.00     0.141 A 
HETATM   12  N   UNK N   1      34.770  40.429  49.983  0.00  0.00    -0.356 N 
ATOM     13  HN  UNK N   1      33.996  40.930  50.417  1.00  0.00     0.166 HD
HETATM   14  C   UNK N   1      35.053  40.653  48.674  0.00  0.00     0.089 A 
HETATM   15  C   UNK N   1      36.083  39.952  48.057  0.00  0.00     0.018 A 
HETATM   16  C   UNK N   1      36.843  39.049  48.799  0.00  0.00     0.018 A 
HETATM   17  C   UNK N   1      36.586  38.851  50.175  0.00  0.00     0.031 A 
ENDROOT
BRANCH   4  18
HETATM   18  C   UNK N   1      39.581  37.668  49.762  0.00  0.00     0.137 C 
HETATM   19  C   UNK N   1      40.393  38.921  50.198  0.00  0.00     0.031 C 
HETATM   20  C   UNK N   1      41.706  38.943  49.423  0.00  0.00     0.032 C 
HETATM   21  C   UNK N   1      42.560  37.734  49.883  0.00  0.00     0.272 C 
HETATM   22  N   UNK N   1      41.743  36.528  50.197  0.00  0.00     0.090 N 
HETATM   23  C   UNK N   1      40.496  36.463  49.422  0.00  0.00     0.299 C 
BRANCH  22  24
HETATM   24  C   UNK N   1      42.528  35.275  50.213  0.00  0.00     0.273 C 
BRANCH  24  25
HETATM   25  C   UNK N   1      42.011  34.196  49.232  0.00  0.00     0.035 C 
BRANCH  25  26
HETATM   26  C   UNK N   1      43.081  33.770  48.206  0.00  0.00    -0.009 C 
HETATM   27  C   UNK N   1      42.548  33.778  46.769  0.00  0.00     0.031 C 
HETATM   28  C   UNK N   1      43.767  33.535  45.833  0.00  0.00     0.168 C 
HETATM   29  O   UNK N   1      44.721  32.577  46.305  0.00  0.00    -0.391 OA
HETATM   30  C   UNK N   1      44.138  31.662  47.204  0.00  0.00     0.168 C 
HETATM   31  C   UNK N   1      43.675  32.366  48.499  0.00  0.00     0.031 C 
ENDBRANCH  25  26
ENDBRANCH  24  25
ENDBRANCH  22  24
ENDBRANCH   4  18
BRANCH   1  32
HETATM   32  C   UNK N   1      37.761  35.350  53.698  0.00  0.00     0.272 C 
HETATM   33  O   UNK N   1      37.439  34.205  53.413  0.00  0.00    -0.266 OA
HETATM   34  N   UNK N   1      38.142  35.647  54.993  0.00  0.00    -0.343 N 
HETATM   35  C   UNK N   1      38.386  34.590  55.969  0.00  0.00     0.152 C 
HETATM   36  C   UNK N   1      38.291  37.009  55.495  0.00  0.00     0.152 C 
HETATM   37  C   UNK N   1      37.562  34.865  57.232  0.00  0.00     0.187 C 
HETATM   38  O   UNK N   1      37.839  36.164  57.729  0.00  0.00    -0.388 OA
HETATM   39  C   UNK N   1      37.445  37.133  56.773  0.00  0.00     0.187 C 
ENDBRANCH   1  32
TORSDOF 5
ENDMDL
MODEL 7
REMARK VINA RESULT:      -8.4      4.168      9.279
REMARK  5 active torsions:
REMARK  status: ('A' for Active; 'I' for Inactive)
REMARK    1  A    between atoms: C_2  and  C_3 
REMARK       I    between atoms: C_2  and  N_34 
REMARK    2  A    between atoms: N_6  and  C_7 
REMARK    3  A    between atoms: N_11  and  C_12 
REMARK    4  A    between atoms: C_12  and  C_13 
REMARK    5  A    between atoms: C_13  and  C_14 
ROOT
HETATM    1  C   UNK N   1      39.741  38.080  51.335  0.00  0.00     0.126 A 
HETATM    2  N   UNK N   1      39.532  38.332  52.640  0.00  0.00    -0.292 N 
ATOM      3  HN  UNK N   1      40.112  38.936  53.222  1.00  0.00     0.187 HD
HETATM    4  N   UNK N   1      38.460  37.675  53.050  0.00  0.00    -0.284 N 
HETATM    5  C   UNK N   1      37.908  37.011  51.993  0.00  0.00     0.074 A 
HETATM    6  C   UNK N   1      38.747  37.220  50.885  0.00  0.00     0.019 A 
HETATM    7  C   UNK N   1      38.621  36.642  49.498  0.00  0.00     0.191 C 
HETATM    8  S   UNK N   1      37.545  35.200  49.610  0.00  0.00     0.196 S 
HETATM    9  O   UNK N   1      38.387  33.939  49.856  0.00  0.00    -0.221 OA
HETATM   10  O   UNK N   1      36.873  34.885  48.264  0.00  0.00    -0.221 OA
HETATM   11  C   UNK N   1      36.346  35.343  50.896  0.00  0.00     0.141 A 
HETATM   12  N   UNK N   1      35.179  34.651  50.820  0.00  0.00    -0.356 N 
ATOM     13  HN  UNK N   1      35.032  34.003  50.047  1.00  0.00     0.166 HD
HETATM   14  C   UNK N   1      34.202  34.803  51.750  0.00  0.00     0.089 A 
HETATM   15  C   UNK N   1      34.371  35.709  52.791  0.00  0.00     0.018 A 
HETATM   16  C   UNK N   1      35.561  36.428  52.893  0.00  0.00     0.018 A 
HETATM   17  C   UNK N   1      36.602  36.234  51.957  0.00  0.00     0.031 A 
ENDROOT
BRANCH   4  18
HETATM   18  C   UNK N   1      38.070  37.676  54.468  0.00  0.00     0.137 C 
HETATM   19  C   UNK N   1      38.293  36.270  55.096  0.00  0.00     0.031 C 
HETATM   20  C   UNK N   1      38.390  36.423  56.609  0.00  0.00     0.032 C 
HETATM   21  C   UNK N   1      39.684  37.215  56.934  0.00  0.00     0.272 C 
HETATM   22  N   UNK N   1      39.996  38.262  55.920  0.00  0.00     0.090 N 
HETATM   23  C   UNK N   1      38.797  38.794  55.257  0.00  0.00     0.299 C 
BRANCH  22  24
HETATM   24  C   UNK N   1      40.942  39.288  56.409  0.00  0.00     0.273 C 
BRANCH  24  25
HETATM   25  C   UNK N   1      41.599  40.126  55.285  0.00  0.00     0.035 C 
BRANCH  25  26
HETATM   26  C   UNK N   1      43.049  39.689  54.995  0.00  0.00    -0.009 C 
HETATM   27  C   UNK N   1      43.973  40.878  54.718  0.00  0.00     0.031 C 
HETATM   28  C   UNK N   1      45.423  40.318  54.648  0.00  0.00     0.168 C 
HETATM   29  O   UNK N   1      45.561  39.054  53.989  0.00  0.00    -0.391 OA
HETATM   30  C   UNK N   1      44.512  38.826  53.076  0.00  0.00     0.168 C 
HETATM   31  C   UNK N   1      43.154  38.699  53.803  0.00  0.00     0.031 C 
ENDBRANCH  25  26
ENDBRANCH  24  25
ENDBRANCH  22  24
ENDBRANCH   4  18
BRANCH   1  32
HETATM   32  C   UNK N   1      40.816  38.735  50.529  0.00  0.00     0.272 C 
HETATM   33  O   UNK N   1      40.599  39.862  50.106  0.00  0.00    -0.266 OA
HETATM   34  N   UNK N   1      42.062  38.166  50.343  0.00  0.00    -0.343 N 
HETATM   35  C   UNK N   1      43.188  38.957  49.856  0.00  0.00     0.152 C 
HETATM   36  C   UNK N   1      42.343  36.752  50.572  0.00  0.00     0.152 C 
HETATM   37  C   UNK N   1      43.813  38.259  48.645  0.00  0.00     0.187 C 
HETATM   38  O   UNK N   1      44.164  36.923  48.971  0.00  0.00    -0.388 OA
HETATM   39  C   UNK N   1      42.995  36.191  49.298  0.00  0.00     0.187 C 
ENDBRANCH   1  32
TORSDOF 5
ENDMDL
MODEL 8
REMARK VINA RESULT:      -8.4      4.539     10.214
REMARK  5 active torsions:
REMARK  status: ('A' for Active; 'I' for Inactive)
REMARK    1  A    between atoms: C_2  and  C_3 
REMARK       I    between atoms: C_2  and  N_34 
REMARK    2  A    between atoms: N_6  and  C_7 
REMARK    3  A    between atoms: N_11  and  C_12 
REMARK    4  A    between atoms: C_12  and  C_13 
REMARK    5  A    between atoms: C_13  and  C_14 
ROOT
HETATM    1  C   UNK N   1      40.857  33.753  45.471  0.00  0.00     0.126 A 
HETATM    2  N   UNK N   1      39.656  33.418  45.974  0.00  0.00    -0.292 N 
ATOM      3  HN  UNK N   1      39.444  33.304  46.965  1.00  0.00     0.187 HD
HETATM    4  N   UNK N   1      38.792  33.259  44.985  0.00  0.00    -0.284 N 
HETATM    5  C   UNK N   1      39.409  33.542  43.801  0.00  0.00     0.074 A 
HETATM    6  C   UNK N   1      40.757  33.817  44.086  0.00  0.00     0.019 A 
HETATM    7  C   UNK N   1      41.874  34.114  43.119  0.00  0.00     0.191 C 
HETATM    8  S   UNK N   1      41.354  33.522  41.497  0.00  0.00     0.196 S 
HETATM    9  O   UNK N   1      41.818  32.071  41.298  0.00  0.00    -0.221 OA
HETATM   10  O   UNK N   1      42.085  34.255  40.362  0.00  0.00    -0.221 OA
HETATM   11  C   UNK N   1      39.606  33.594  41.273  0.00  0.00     0.141 A 
HETATM   12  N   UNK N   1      39.081  33.686  40.023  0.00  0.00    -0.356 N 
ATOM     13  HN  UNK N   1      39.704  33.650  39.217  1.00  0.00     0.166 HD
HETATM   14  C   UNK N   1      37.746  33.828  39.822  0.00  0.00     0.089 A 
HETATM   15  C   UNK N   1      36.887  33.916  40.912  0.00  0.00     0.018 A 
HETATM   16  C   UNK N   1      37.400  33.820  42.204  0.00  0.00     0.018 A 
HETATM   17  C   UNK N   1      38.783  33.620  42.417  0.00  0.00     0.031 A 
ENDROOT
BRANCH   4  18
HETATM   18  C   UNK N   1      37.428  32.773  45.243  0.00  0.00     0.137 C 
HETATM   19  C   UNK N   1      37.454  31.276  45.663  0.00  0.00     0.031 C 
HETATM   20  C   UNK N   1      36.163  30.957  46.408  0.00  0.00     0.032 C 
HETATM   21  C   UNK N   1      36.166  31.747  47.743  0.00  0.00     0.272 C 
HETATM   22  N   UNK N   1      36.810  33.086  47.627  0.00  0.00     0.090 N 
HETATM   23  C   UNK N   1      36.695  33.662  46.280  0.00  0.00     0.299 C 
BRANCH  22  24
HETATM   24  C   UNK N   1      36.452  34.006  48.728  0.00  0.00     0.273 C 
BRANCH  24  25
HETATM   25  C   UNK N   1      37.118  33.658  50.081  0.00  0.00     0.035 C 
BRANCH  25  26
HETATM   26  C   UNK N   1      38.177  34.697  50.501  0.00  0.00    -0.009 C 
HETATM   27  C   UNK N   1      37.568  36.075  50.773  0.00  0.00     0.031 C 
HETATM   28  C   UNK N   1      38.697  36.957  51.380  0.00  0.00     0.168 C 
HETATM   29  O   UNK N   1      39.994  36.780  50.798  0.00  0.00    -0.391 OA
HETATM   30  C   UNK N   1      39.909  36.285  49.481  0.00  0.00     0.168 C 
HETATM   31  C   UNK N   1      39.312  34.861  49.454  0.00  0.00     0.031 C 
ENDBRANCH  25  26
ENDBRANCH  24  25
ENDBRANCH  22  24
ENDBRANCH   4  18
BRANCH   1  32
HETATM   32  C   UNK N   1      42.040  34.098  46.318  0.00  0.00     0.272 C 
HETATM   33  O   UNK N   1      41.999  35.145  46.949  0.00  0.00    -0.266 OA
HETATM   34  N   UNK N   1      43.110  33.240  46.492  0.00  0.00    -0.343 N 
HETATM   35  C   UNK N   1      44.071  33.443  47.571  0.00  0.00     0.152 C 
HETATM   36  C   UNK N   1      43.386  32.109  45.612  0.00  0.00     0.152 C 
HETATM   37  C   UNK N   1      45.489  33.458  46.992  0.00  0.00     0.187 C 
HETATM   38  O   UNK N   1      45.728  32.278  46.240  0.00  0.00    -0.388 OA
HETATM   39  C   UNK N   1      44.842  32.232  45.134  0.00  0.00     0.187 C 
ENDBRANCH   1  32
TORSDOF 5
ENDMDL
MODEL 9
REMARK VINA RESULT:      -8.3      3.208      8.294
REMARK  5 active torsions:
REMARK  status: ('A' for Active; 'I' for Inactive)
REMARK    1  A    between atoms: C_2  and  C_3 
REMARK       I    between atoms: C_2  and  N_34 
REMARK    2  A    between atoms: N_6  and  C_7 
REMARK    3  A    between atoms: N_11  and  C_12 
REMARK    4  A    between atoms: C_12  and  C_13 
REMARK    5  A    between atoms: C_13  and  C_14 
ROOT
HETATM    1  C   UNK N   1      39.547  35.358  49.182  0.00  0.00     0.126 A 
HETATM    2  N   UNK N   1      40.591  35.779  49.917  0.00  0.00    -0.292 N 
ATOM      3  HN  UNK N   1      40.527  36.371  50.745  1.00  0.00     0.187 HD
HETATM    4  N   UNK N   1      41.714  35.308  49.398  0.00  0.00    -0.284 N 
HETATM    5  C   UNK N   1      41.416  34.515  48.328  0.00  0.00     0.074 A 
HETATM    6  C   UNK N   1      40.024  34.571  48.141  0.00  0.00     0.019 A 
HETATM    7  C   UNK N   1      39.203  33.930  47.051  0.00  0.00     0.191 C 
HETATM    8  S   UNK N   1      40.323  33.531  45.695  0.00  0.00     0.196 S 
HETATM    9  O   UNK N   1      40.382  34.704  44.705  0.00  0.00    -0.221 OA
HETATM   10  O   UNK N   1      39.776  32.394  44.820  0.00  0.00    -0.221 OA
HETATM   11  C   UNK N   1      41.959  33.172  46.247  0.00  0.00     0.141 A 
HETATM   12  N   UNK N   1      42.776  32.387  45.496  0.00  0.00    -0.356 N 
ATOM     13  HN  UNK N   1      42.455  32.063  44.584  1.00  0.00     0.166 HD
HETATM   14  C   UNK N   1      44.009  32.024  45.932  0.00  0.00     0.089 A 
HETATM   15  C   UNK N   1      44.448  32.429  47.188  0.00  0.00     0.018 A 
HETATM   16  C   UNK N   1      43.631  33.238  47.976  0.00  0.00     0.018 A 
HETATM   17  C   UNK N   1      42.367  33.662  47.504  0.00  0.00     0.031 A 
ENDROOT
BRANCH   4  18
HETATM   18  C   UNK N   1      43.022  35.713  49.934  0.00  0.00     0.137 C 
HETATM   19  C   UNK N   1      43.931  36.261  48.797  0.00  0.00     0.031 C 
HETATM   20  C   UNK N   1      45.019  37.128  49.420  0.00  0.00     0.032 C 
HETATM   21  C   UNK N   1      44.346  38.383  50.033  0.00  0.00     0.272 C 
HETATM   22  N   UNK N   1      43.004  38.100  50.615  0.00  0.00     0.090 N 
HETATM   23  C   UNK N   1      42.870  36.720  51.103  0.00  0.00     0.299 C 
BRANCH  22  24
HETATM   24  C   UNK N   1      42.544  39.139  51.561  0.00  0.00     0.273 C 
BRANCH  24  25
HETATM   25  C   UNK N   1      42.828  38.808  53.046  0.00  0.00     0.035 C 
BRANCH  25  26
HETATM   26  C   UNK N   1      44.073  39.540  53.586  0.00  0.00    -0.009 C 
HETATM   27  C   UNK N   1      45.329  38.664  53.543  0.00  0.00     0.031 C 
HETATM   28  C   UNK N   1      46.531  39.579  53.914  0.00  0.00     0.168 C 
HETATM   29  O   UNK N   1      46.280  40.530  54.956  0.00  0.00    -0.391 OA
HETATM   30  C   UNK N   1      45.231  40.112  55.799  0.00  0.00     0.168 C 
HETATM   31  C   UNK N   1      43.887  40.058  55.038  0.00  0.00     0.031 C 
ENDBRANCH  25  26
ENDBRANCH  24  25
ENDBRANCH  22  24
ENDBRANCH   4  18
BRANCH   1  32
HETATM   32  C   UNK N   1      38.121  35.630  49.541  0.00  0.00     0.272 C 
HETATM   33  O   UNK N   1      37.676  36.741  49.288  0.00  0.00    -0.266 OA
HETATM   34  N   UNK N   1      37.277  34.655  50.039  0.00  0.00    -0.343 N 
HETATM   35  C   UNK N   1      35.830  34.848  50.057  0.00  0.00     0.152 C 
HETATM   36  C   UNK N   1      37.748  33.398  50.611  0.00  0.00     0.152 C 
HETATM   37  C   UNK N   1      35.301  34.590  51.471  0.00  0.00     0.187 C 
HETATM   38  O   UNK N   1      35.703  33.306  51.922  0.00  0.00    -0.388 OA
HETATM   39  C   UNK N   1      37.117  33.253  52.006  0.00  0.00     0.187 C 
ENDBRANCH   1  32
TORSDOF 5
ENDMDL
