MODEL 1
REMARK VINA RESULT:      -8.7      0.000      0.000
REMARK  6 active torsions:
REMARK  status: ('A' for Active; 'I' for Inactive)
REMARK    1  A    between atoms: O_2  and  C_3 
REMARK    2  A    between atoms: N_6  and  C_7 
REMARK    3  A    between atoms: C_7  and  C_8 
REMARK    4  A    between atoms: C_8  and  N_9 
REMARK    5  A    between atoms: C_13  and  N_14 
REMARK    6  A    between atoms: C_17  and  C_18 
REMARK       I    between atoms: C_18  and  N_20 
ROOT
HETATM    1  N   UNK N   1      41.012  35.008  49.017  0.00  0.00    -0.284 N 
HETATM    2  N   UNK N   1      39.791  34.513  48.868  0.00  0.00    -0.292 N 
ATOM      3  HN  UNK N   1      39.549  33.719  48.276  1.00  0.00     0.187 HD
HETATM    4  C   UNK N   1      38.923  35.212  49.610  0.00  0.00     0.126 A 
HETATM    5  C   UNK N   1      39.619  36.203  50.285  0.00  0.00     0.019 A 
HETATM    6  C   UNK N   1      40.966  36.035  49.916  0.00  0.00     0.072 A 
HETATM    7  C   UNK N   1      42.115  36.878  50.442  0.00  0.00     0.014 A 
HETATM    8  C   UNK N   1      43.457  36.436  50.426  0.00  0.00     0.015 A 
HETATM    9  C   UNK N   1      44.482  37.241  50.936  0.00  0.00     0.001 A 
HETATM   10  C   UNK N   1      44.192  38.491  51.478  0.00  0.00     0.002 A 
HETATM   11  C   UNK N   1      42.874  38.933  51.539  0.00  0.00     0.024 A 
HETATM   12  C   UNK N   1      41.845  38.130  51.039  0.00  0.00     0.072 A 
HETATM   13  S   UNK N   1      40.162  38.652  51.180  0.00  0.00     0.180 S 
HETATM   14  O   UNK N   1      39.944  39.538  52.415  0.00  0.00    -0.222 OA
HETATM   15  O   UNK N   1      39.838  39.614  50.026  0.00  0.00    -0.222 OA
HETATM   16  C   UNK N   1      39.012  37.274  51.152  0.00  0.00     0.189 C 
ENDROOT
BRANCH   1  17
HETATM   17  C   UNK N   1      42.110  34.512  48.163  0.00  0.00     0.137 C 
HETATM   18  C   UNK N   1      42.728  33.235  48.731  0.00  0.00     0.031 C 
HETATM   19  C   UNK N   1      43.911  32.780  47.838  0.00  0.00     0.032 C 
HETATM   20  C   UNK N   1      43.669  33.084  46.340  0.00  0.00     0.272 C 
HETATM   21  N   UNK N   1      42.228  33.038  46.079  0.00  0.00     0.092 N 
HETATM   22  C   UNK N   1      41.550  34.193  46.733  0.00  0.00     0.299 C 
BRANCH  21  23
HETATM   23  C   UNK N   1      41.863  32.909  44.651  0.00  0.00     0.302 C 
BRANCH  23  24
HETATM   24  C   UNK N   1      41.016  34.125  44.211  0.00  0.00     0.302 C 
BRANCH  24  25
HETATM   25  N   UNK N   1      41.555  34.790  43.002  0.00  0.00     0.090 N 
HETATM   26  C   UNK N   1      40.713  35.934  42.575  0.00  0.00     0.275 C 
HETATM   27  C   UNK N   1      39.396  35.472  41.922  0.00  0.00     0.062 C 
HETATM   28  C   UNK N   1      39.697  34.587  40.707  0.00  0.00     0.124 C 
HETATM   29  C   UNK N   1      40.555  33.395  41.162  0.00  0.00     0.062 C 
HETATM   30  C   UNK N   1      41.839  33.884  41.862  0.00  0.00     0.275 C 
BRANCH  28  31
HETATM   31  O   UNK N   1      40.400  35.357  39.744  0.00  0.00    -0.391 OA
HETATM   32  C   UNK N   1      39.513  35.941  38.818  0.00  0.00     0.202 C 
ENDBRANCH  28  31
ENDBRANCH  24  25
ENDBRANCH  23  24
ENDBRANCH  21  23
ENDBRANCH   1  17
BRANCH   4  33
HETATM   33  C   UNK N   1      37.440  34.987  49.622  0.00  0.00     0.272 C 
HETATM   34  O   UNK N   1      36.814  35.282  48.612  0.00  0.00    -0.266 OA
HETATM   35  N   UNK N   1      36.763  34.422  50.689  0.00  0.00    -0.343 N 
HETATM   36  C   UNK N   1      35.329  34.144  50.521  0.00  0.00     0.152 C 
HETATM   37  C   UNK N   1      37.487  33.915  51.863  0.00  0.00     0.152 C 
HETATM   38  C   UNK N   1      34.669  33.529  51.754  0.00  0.00     0.187 C 
HETATM   39  O   UNK N   1      35.526  32.572  52.340  0.00  0.00    -0.388 OA
HETATM   40  C   UNK N   1      36.583  33.295  52.934  0.00  0.00     0.187 C 
ENDBRANCH   4  33
TORSDOF 6
ENDMDL
MODEL 2
REMARK VINA RESULT:      -8.6      1.819      2.492
REMARK  6 active torsions:
REMARK  status: ('A' for Active; 'I' for Inactive)
REMARK    1  A    between atoms: O_2  and  C_3 
REMARK    2  A    between atoms: N_6  and  C_7 
REMARK    3  A    between atoms: C_7  and  C_8 
REMARK    4  A    between atoms: C_8  and  N_9 
REMARK    5  A    between atoms: C_13  and  N_14 
REMARK    6  A    between atoms: C_17  and  C_18 
REMARK       I    between atoms: C_18  and  N_20 
ROOT
HETATM    1  N   UNK N   1      41.016  35.009  48.916  0.00  0.00    -0.284 N 
HETATM    2  N   UNK N   1      39.790  34.522  48.779  0.00  0.00    -0.292 N 
ATOM      3  HN  UNK N   1      39.538  33.729  48.190  1.00  0.00     0.187 HD
HETATM    4  C   UNK N   1      38.934  35.227  49.530  0.00  0.00     0.126 A 
HETATM    5  C   UNK N   1      39.643  36.213  50.198  0.00  0.00     0.019 A 
HETATM    6  C   UNK N   1      40.986  36.037  49.816  0.00  0.00     0.072 A 
HETATM    7  C   UNK N   1      42.144  36.872  50.329  0.00  0.00     0.014 A 
HETATM    8  C   UNK N   1      43.484  36.421  50.300  0.00  0.00     0.015 A 
HETATM    9  C   UNK N   1      44.518  37.220  50.800  0.00  0.00     0.001 A 
HETATM   10  C   UNK N   1      44.242  38.473  51.345  0.00  0.00     0.002 A 
HETATM   11  C   UNK N   1      42.928  38.923  51.419  0.00  0.00     0.024 A 
HETATM   12  C   UNK N   1      41.888  38.126  50.929  0.00  0.00     0.072 A 
HETATM   13  S   UNK N   1      40.210  38.658  51.087  0.00  0.00     0.180 S 
HETATM   14  O   UNK N   1      40.010  39.546  52.324  0.00  0.00    -0.222 OA
HETATM   15  O   UNK N   1      39.881  39.622  49.936  0.00  0.00    -0.222 OA
HETATM   16  C   UNK N   1      39.051  37.288  51.071  0.00  0.00     0.189 C 
ENDROOT
BRANCH   1  17
HETATM   17  C   UNK N   1      42.103  34.506  48.051  0.00  0.00     0.137 C 
HETATM   18  C   UNK N   1      42.738  33.243  48.630  0.00  0.00     0.031 C 
HETATM   19  C   UNK N   1      43.908  32.780  47.723  0.00  0.00     0.032 C 
HETATM   20  C   UNK N   1      43.639  33.059  46.225  0.00  0.00     0.272 C 
HETATM   21  N   UNK N   1      42.193  32.999  45.990  0.00  0.00     0.092 N 
HETATM   22  C   UNK N   1      41.519  34.160  46.637  0.00  0.00     0.299 C 
BRANCH  21  23
HETATM   23  C   UNK N   1      41.805  32.843  44.571  0.00  0.00     0.302 C 
BRANCH  23  24
HETATM   24  C   UNK N   1      40.469  33.575  44.307  0.00  0.00     0.302 C 
BRANCH  24  25
HETATM   25  N   UNK N   1      39.359  32.645  43.998  0.00  0.00     0.090 N 
HETATM   26  C   UNK N   1      38.375  33.246  43.063  0.00  0.00     0.275 C 
HETATM   27  C   UNK N   1      37.497  34.309  43.750  0.00  0.00     0.062 C 
HETATM   28  C   UNK N   1      36.751  33.686  44.934  0.00  0.00     0.124 C 
HETATM   29  C   UNK N   1      37.778  33.082  45.907  0.00  0.00     0.062 C 
HETATM   30  C   UNK N   1      38.680  32.062  45.181  0.00  0.00     0.275 C 
BRANCH  28  31
HETATM   31  O   UNK N   1      35.884  32.673  44.447  0.00  0.00    -0.391 OA
HETATM   32  C   UNK N   1      34.963  32.276  45.436  0.00  0.00     0.202 C 
ENDBRANCH  28  31
ENDBRANCH  24  25
ENDBRANCH  23  24
ENDBRANCH  21  23
ENDBRANCH   1  17
BRANCH   4  33
HETATM   33  C   UNK N   1      37.450  35.011  49.556  0.00  0.00     0.272 C 
HETATM   34  O   UNK N   1      36.816  35.304  48.551  0.00  0.00    -0.266 OA
HETATM   35  N   UNK N   1      36.779  34.455  50.632  0.00  0.00    -0.343 N 
HETATM   36  C   UNK N   1      35.342  34.185  50.479  0.00  0.00     0.152 C 
HETATM   37  C   UNK N   1      37.511  33.949  51.803  0.00  0.00     0.152 C 
HETATM   38  C   UNK N   1      34.690  33.580  51.721  0.00  0.00     0.187 C 
HETATM   39  O   UNK N   1      35.547  32.620  52.304  0.00  0.00    -0.388 OA
HETATM   40  C   UNK N   1      36.614  33.339  52.884  0.00  0.00     0.187 C 
ENDBRANCH   4  33
TORSDOF 6
ENDMDL
MODEL 3
REMARK VINA RESULT:      -8.4      5.032      9.149
REMARK  6 active torsions:
REMARK  status: ('A' for Active; 'I' for Inactive)
REMARK    1  A    between atoms: O_2  and  C_3 
REMARK    2  A    between atoms: N_6  and  C_7 
REMARK    3  A    between atoms: C_7  and  C_8 
REMARK    4  A    between atoms: C_8  and  N_9 
REMARK    5  A    between atoms: C_13  and  N_14 
REMARK    6  A    between atoms: C_17  and  C_18 
REMARK       I    between atoms: C_18  and  N_20 
ROOT
HETATM    1  N   UNK N   1      41.835  38.672  52.434  0.00  0.00    -0.284 N 
HETATM    2  N   UNK N   1      40.522  38.834  52.530  0.00  0.00    -0.292 N 
ATOM      3  HN  UNK N   1      40.042  39.274  53.315  1.00  0.00     0.187 HD
HETATM    4  C   UNK N   1      39.920  38.334  51.443  0.00  0.00     0.126 A 
HETATM    5  C   UNK N   1      40.893  37.834  50.592  0.00  0.00     0.019 A 
HETATM    6  C   UNK N   1      42.121  38.089  51.232  0.00  0.00     0.072 A 
HETATM    7  C   UNK N   1      43.482  37.747  50.653  0.00  0.00     0.014 A 
HETATM    8  C   UNK N   1      44.672  38.388  51.067  0.00  0.00     0.015 A 
HETATM    9  C   UNK N   1      45.903  38.051  50.493  0.00  0.00     0.001 A 
HETATM   10  C   UNK N   1      45.973  37.082  49.494  0.00  0.00     0.002 A 
HETATM   11  C   UNK N   1      44.811  36.464  49.043  0.00  0.00     0.024 A 
HETATM   12  C   UNK N   1      43.577  36.802  49.606  0.00  0.00     0.072 A 
HETATM   13  S   UNK N   1      42.089  36.076  48.988  0.00  0.00     0.180 S 
HETATM   14  O   UNK N   1      42.207  35.721  47.498  0.00  0.00    -0.222 OA
HETATM   15  O   UNK N   1      41.896  34.698  49.639  0.00  0.00    -0.222 OA
HETATM   16  C   UNK N   1      40.646  37.095  49.304  0.00  0.00     0.189 C 
ENDROOT
BRANCH   1  17
HETATM   17  C   UNK N   1      42.696  38.988  53.591  0.00  0.00     0.137 C 
HETATM   18  C   UNK N   1      43.444  40.304  53.388  0.00  0.00     0.031 C 
HETATM   19  C   UNK N   1      44.378  40.570  54.597  0.00  0.00     0.032 C 
HETATM   20  C   UNK N   1      43.777  40.062  55.930  0.00  0.00     0.272 C 
HETATM   21  N   UNK N   1      42.316  40.135  55.842  0.00  0.00     0.092 N 
HETATM   22  C   UNK N   1      41.807  39.120  54.876  0.00  0.00     0.299 C 
BRANCH  21  23
HETATM   23  C   UNK N   1      41.616  40.072  57.144  0.00  0.00     0.302 C 
BRANCH  23  24
HETATM   24  C   UNK N   1      40.380  39.150  57.033  0.00  0.00     0.302 C 
BRANCH  24  25
HETATM   25  N   UNK N   1      39.103  39.883  57.196  0.00  0.00     0.090 N 
HETATM   26  C   UNK N   1      37.929  39.032  56.877  0.00  0.00     0.275 C 
HETATM   27  C   UNK N   1      37.779  38.797  55.362  0.00  0.00     0.062 C 
HETATM   28  C   UNK N   1      37.641  40.139  54.635  0.00  0.00     0.124 C 
HETATM   29  C   UNK N   1      38.869  41.006  54.956  0.00  0.00     0.062 C 
HETATM   30  C   UNK N   1      39.029  41.180  56.480  0.00  0.00     0.275 C 
BRANCH  28  31
HETATM   31  O   UNK N   1      36.456  40.781  55.083  0.00  0.00    -0.391 OA
HETATM   32  C   UNK N   1      35.382  40.527  54.208  0.00  0.00     0.202 C 
ENDBRANCH  28  31
ENDBRANCH  24  25
ENDBRANCH  23  24
ENDBRANCH  21  23
ENDBRANCH   1  17
BRANCH   4  33
HETATM   33  C   UNK N   1      38.434  38.267  51.248  0.00  0.00     0.272 C 
HETATM   34  O   UNK N   1      37.926  39.082  50.490  0.00  0.00    -0.266 OA
HETATM   35  N   UNK N   1      37.630  37.308  51.838  0.00  0.00    -0.343 N 
HETATM   36  C   UNK N   1      36.208  37.282  51.465  0.00  0.00     0.152 C 
HETATM   37  C   UNK N   1      38.210  36.218  52.637  0.00  0.00     0.152 C 
HETATM   38  C   UNK N   1      35.402  36.194  52.174  0.00  0.00     0.187 C 
HETATM   39  O   UNK N   1      36.151  35.000  52.247  0.00  0.00    -0.388 OA
HETATM   40  C   UNK N   1      37.177  35.230  53.189  0.00  0.00     0.187 C 
ENDBRANCH   4  33
TORSDOF 6
ENDMDL
MODEL 4
REMARK VINA RESULT:      -8.2      5.484     10.361
REMARK  6 active torsions:
REMARK  status: ('A' for Active; 'I' for Inactive)
REMARK    1  A    between atoms: O_2  and  C_3 
REMARK    2  A    between atoms: N_6  and  C_7 
REMARK    3  A    between atoms: C_7  and  C_8 
REMARK    4  A    between atoms: C_8  and  N_9 
REMARK    5  A    between atoms: C_13  and  N_14 
REMARK    6  A    between atoms: C_17  and  C_18 
REMARK       I    between atoms: C_18  and  N_20 
ROOT
HETATM    1  N   UNK N   1      41.944  39.197  53.416  0.00  0.00    -0.284 N 
HETATM    2  N   UNK N   1      40.755  39.259  52.833  0.00  0.00    -0.292 N 
ATOM      3  HN  UNK N   1      39.878  39.462  53.311  1.00  0.00     0.187 HD
HETATM    4  C   UNK N   1      40.877  39.016  51.521  0.00  0.00     0.126 A 
HETATM    5  C   UNK N   1      42.216  38.799  51.237  0.00  0.00     0.019 A 
HETATM    6  C   UNK N   1      42.891  38.951  52.463  0.00  0.00     0.072 A 
HETATM    7  C   UNK N   1      44.395  38.839  52.638  0.00  0.00     0.014 A 
HETATM    8  C   UNK N   1      45.083  39.417  53.729  0.00  0.00     0.015 A 
HETATM    9  C   UNK N   1      46.473  39.302  53.840  0.00  0.00     0.001 A 
HETATM   10  C   UNK N   1      47.204  38.620  52.870  0.00  0.00     0.002 A 
HETATM   11  C   UNK N   1      46.555  38.073  51.768  0.00  0.00     0.024 A 
HETATM   12  C   UNK N   1      45.166  38.193  51.646  0.00  0.00     0.072 A 
HETATM   13  S   UNK N   1      44.343  37.567  50.212  0.00  0.00     0.180 S 
HETATM   14  O   UNK N   1      45.252  37.603  48.975  0.00  0.00    -0.222 OA
HETATM   15  O   UNK N   1      44.098  36.061  50.394  0.00  0.00    -0.222 OA
HETATM   16  C   UNK N   1      42.782  38.395  49.902  0.00  0.00     0.189 C 
ENDROOT
BRANCH   1  17
HETATM   17  C   UNK N   1      42.039  39.258  54.889  0.00  0.00     0.137 C 
HETATM   18  C   UNK N   1      42.548  40.619  55.360  0.00  0.00     0.031 C 
HETATM   19  C   UNK N   1      42.687  40.623  56.905  0.00  0.00     0.032 C 
HETATM   20  C   UNK N   1      41.597  39.770  57.597  0.00  0.00     0.272 C 
HETATM   21  N   UNK N   1      40.390  39.789  56.766  0.00  0.00     0.092 N 
HETATM   22  C   UNK N   1      40.618  39.022  55.509  0.00  0.00     0.299 C 
BRANCH  21  23
HETATM   23  C   UNK N   1      39.154  39.370  57.463  0.00  0.00     0.302 C 
BRANCH  23  24
HETATM   24  C   UNK N   1      38.000  40.339  57.119  0.00  0.00     0.302 C 
BRANCH  24  25
HETATM   25  N   UNK N   1      38.481  41.636  56.589  0.00  0.00     0.090 N 
HETATM   26  C   UNK N   1      38.332  42.731  57.580  0.00  0.00     0.275 C 
HETATM   27  C   UNK N   1      36.864  43.168  57.744  0.00  0.00     0.062 C 
HETATM   28  C   UNK N   1      36.301  43.628  56.396  0.00  0.00     0.124 C 
HETATM   29  C   UNK N   1      36.441  42.482  55.380  0.00  0.00     0.062 C 
HETATM   30  C   UNK N   1      37.912  42.027  55.276  0.00  0.00     0.275 C 
BRANCH  28  31
HETATM   31  O   UNK N   1      37.032  44.763  55.958  0.00  0.00    -0.391 OA
HETATM   32  C   UNK N   1      36.687  45.907  56.705  0.00  0.00     0.202 C 
ENDBRANCH  28  31
ENDBRANCH  24  25
ENDBRANCH  23  24
ENDBRANCH  21  23
ENDBRANCH   1  17
BRANCH   4  33
HETATM   33  C   UNK N   1      39.727  38.921  50.563  0.00  0.00     0.272 C 
HETATM   34  O   UNK N   1      39.596  39.822  49.745  0.00  0.00    -0.266 OA
HETATM   35  N   UNK N   1      38.850  37.851  50.528  0.00  0.00    -0.343 N 
HETATM   36  C   UNK N   1      37.842  37.827  49.457  0.00  0.00     0.152 C 
HETATM   37  C   UNK N   1      39.053  36.676  51.387  0.00  0.00     0.152 C 
HETATM   38  C   UNK N   1      36.917  36.611  49.507  0.00  0.00     0.187 C 
HETATM   39  O   UNK N   1      37.652  35.451  49.834  0.00  0.00    -0.388 OA
HETATM   40  C   UNK N   1      38.005  35.574  51.195  0.00  0.00     0.187 C 
ENDBRANCH   4  33
TORSDOF 6
ENDMDL
MODEL 5
REMARK VINA RESULT:      -8.0      5.040     10.020
REMARK  6 active torsions:
REMARK  status: ('A' for Active; 'I' for Inactive)
REMARK    1  A    between atoms: O_2  and  C_3 
REMARK    2  A    between atoms: N_6  and  C_7 
REMARK    3  A    between atoms: C_7  and  C_8 
REMARK    4  A    between atoms: C_8  and  N_9 
REMARK    5  A    between atoms: C_13  and  N_14 
REMARK    6  A    between atoms: C_17  and  C_18 
REMARK       I    between atoms: C_18  and  N_20 
ROOT
HETATM    1  N   UNK N   1      41.806  38.661  52.478  0.00  0.00    -0.284 N 
HETATM    2  N   UNK N   1      40.495  38.820  52.588  0.00  0.00    -0.292 N 
ATOM      3  HN  UNK N   1      40.022  39.252  53.381  1.00  0.00     0.187 HD
HETATM    4  C   UNK N   1      39.883  38.328  51.503  0.00  0.00     0.126 A 
HETATM    5  C   UNK N   1      40.849  37.837  50.638  0.00  0.00     0.019 A 
HETATM    6  C   UNK N   1      42.082  38.088  51.268  0.00  0.00     0.072 A 
HETATM    7  C   UNK N   1      43.438  37.754  50.674  0.00  0.00     0.014 A 
HETATM    8  C   UNK N   1      44.631  38.393  51.082  0.00  0.00     0.015 A 
HETATM    9  C   UNK N   1      45.857  38.063  50.494  0.00  0.00     0.001 A 
HETATM   10  C   UNK N   1      45.920  37.102  49.486  0.00  0.00     0.002 A 
HETATM   11  C   UNK N   1      44.755  36.486  49.041  0.00  0.00     0.024 A 
HETATM   12  C   UNK N   1      43.525  36.818  49.619  0.00  0.00     0.072 A 
HETATM   13  S   UNK N   1      42.033  36.095  49.008  0.00  0.00     0.180 S 
HETATM   14  O   UNK N   1      42.138  35.752  47.515  0.00  0.00    -0.222 OA
HETATM   15  O   UNK N   1      41.848  34.710  49.649  0.00  0.00    -0.222 OA
HETATM   16  C   UNK N   1      40.591  37.108  49.346  0.00  0.00     0.189 C 
ENDROOT
BRANCH   1  17
HETATM   17  C   UNK N   1      42.678  38.968  53.630  0.00  0.00     0.137 C 
HETATM   18  C   UNK N   1      43.440  40.276  53.422  0.00  0.00     0.031 C 
HETATM   19  C   UNK N   1      44.383  40.533  54.625  0.00  0.00     0.032 C 
HETATM   20  C   UNK N   1      43.785  40.032  55.961  0.00  0.00     0.272 C 
HETATM   21  N   UNK N   1      42.324  40.121  55.882  0.00  0.00     0.092 N 
HETATM   22  C   UNK N   1      41.799  39.111  54.920  0.00  0.00     0.299 C 
BRANCH  21  23
HETATM   23  C   UNK N   1      41.631  40.067  57.188  0.00  0.00     0.302 C 
BRANCH  23  24
HETATM   24  C   UNK N   1      40.116  39.848  56.972  0.00  0.00     0.302 C 
BRANCH  24  25
HETATM   25  N   UNK N   1      39.372  39.705  58.244  0.00  0.00     0.090 N 
HETATM   26  C   UNK N   1      39.788  38.497  58.999  0.00  0.00     0.275 C 
HETATM   27  C   UNK N   1      39.251  37.201  58.361  0.00  0.00     0.062 C 
HETATM   28  C   UNK N   1      37.721  37.249  58.289  0.00  0.00     0.124 C 
HETATM   29  C   UNK N   1      37.299  38.493  57.490  0.00  0.00     0.062 C 
HETATM   30  C   UNK N   1      37.895  39.770  58.118  0.00  0.00     0.275 C 
BRANCH  28  31
HETATM   31  O   UNK N   1      37.203  37.315  59.610  0.00  0.00    -0.391 OA
HETATM   32  C   UNK N   1      35.821  37.046  59.625  0.00  0.00     0.202 C 
ENDBRANCH  28  31
ENDBRANCH  24  25
ENDBRANCH  23  24
ENDBRANCH  21  23
ENDBRANCH   1  17
BRANCH   4  33
HETATM   33  C   UNK N   1      38.396  38.261  51.321  0.00  0.00     0.272 C 
HETATM   34  O   UNK N   1      37.874  39.104  50.604  0.00  0.00    -0.266 OA
HETATM   35  N   UNK N   1      37.603  37.272  51.878  0.00  0.00    -0.343 N 
HETATM   36  C   UNK N   1      36.178  37.253  51.518  0.00  0.00     0.152 C 
HETATM   37  C   UNK N   1      38.199  36.152  52.622  0.00  0.00     0.152 C 
HETATM   38  C   UNK N   1      35.385  36.131  52.189  0.00  0.00     0.187 C 
HETATM   39  O   UNK N   1      36.143  34.939  52.202  0.00  0.00    -0.388 OA
HETATM   40  C   UNK N   1      37.177  35.135  53.142  0.00  0.00     0.187 C 
ENDBRANCH   4  33
TORSDOF 6
ENDMDL
MODEL 6
REMARK VINA RESULT:      -7.9      5.414      9.186
REMARK  6 active torsions:
REMARK  status: ('A' for Active; 'I' for Inactive)
REMARK    1  A    between atoms: O_2  and  C_3 
REMARK    2  A    between atoms: N_6  and  C_7 
REMARK    3  A    between atoms: C_7  and  C_8 
REMARK    4  A    between atoms: C_8  and  N_9 
REMARK    5  A    between atoms: C_13  and  N_14 
REMARK    6  A    between atoms: C_17  and  C_18 
REMARK       I    between atoms: C_18  and  N_20 
ROOT
HETATM    1  N   UNK N   1      41.800  39.138  53.442  0.00  0.00    -0.284 N 
HETATM    2  N   UNK N   1      40.614  39.177  52.850  0.00  0.00    -0.292 N 
ATOM      3  HN  UNK N   1      39.729  39.358  53.323  1.00  0.00     0.187 HD
HETATM    4  C   UNK N   1      40.752  38.942  51.539  0.00  0.00     0.126 A 
HETATM    5  C   UNK N   1      42.098  38.755  51.265  0.00  0.00     0.019 A 
HETATM    6  C   UNK N   1      42.760  38.917  52.496  0.00  0.00     0.072 A 
HETATM    7  C   UNK N   1      44.264  38.838  52.683  0.00  0.00     0.014 A 
HETATM    8  C   UNK N   1      44.930  39.427  53.781  0.00  0.00     0.015 A 
HETATM    9  C   UNK N   1      46.322  39.341  53.903  0.00  0.00     0.001 A 
HETATM   10  C   UNK N   1      47.076  38.680  52.935  0.00  0.00     0.002 A 
HETATM   11  C   UNK N   1      46.447  38.124  51.826  0.00  0.00     0.024 A 
HETATM   12  C   UNK N   1      45.057  38.213  51.694  0.00  0.00     0.072 A 
HETATM   13  S   UNK N   1      44.259  37.575  50.251  0.00  0.00     0.180 S 
HETATM   14  O   UNK N   1      45.177  37.637  49.021  0.00  0.00    -0.222 OA
HETATM   15  O   UNK N   1      44.046  36.063  50.425  0.00  0.00    -0.222 OA
HETATM   16  C   UNK N   1      42.682  38.369  49.932  0.00  0.00     0.189 C 
ENDROOT
BRANCH   1  17
HETATM   17  C   UNK N   1      41.882  39.195  54.916  0.00  0.00     0.137 C 
HETATM   18  C   UNK N   1      42.387  40.555  55.396  0.00  0.00     0.031 C 
HETATM   19  C   UNK N   1      42.513  40.554  56.941  0.00  0.00     0.032 C 
HETATM   20  C   UNK N   1      41.416  39.699  57.622  0.00  0.00     0.272 C 
HETATM   21  N   UNK N   1      40.216  39.722  56.780  0.00  0.00     0.092 N 
HETATM   22  C   UNK N   1      40.456  38.958  55.523  0.00  0.00     0.299 C 
BRANCH  21  23
HETATM   23  C   UNK N   1      38.975  39.301  57.465  0.00  0.00     0.302 C 
BRANCH  23  24
HETATM   24  C   UNK N   1      38.244  38.231  56.622  0.00  0.00     0.302 C 
BRANCH  24  25
HETATM   25  N   UNK N   1      36.871  38.638  56.246  0.00  0.00     0.090 N 
HETATM   26  C   UNK N   1      36.309  37.776  55.176  0.00  0.00     0.275 C 
HETATM   27  C   UNK N   1      36.938  38.074  53.802  0.00  0.00     0.062 C 
HETATM   28  C   UNK N   1      36.717  39.544  53.433  0.00  0.00     0.124 C 
HETATM   29  C   UNK N   1      37.318  40.430  54.537  0.00  0.00     0.062 C 
HETATM   30  C   UNK N   1      36.712  40.074  55.910  0.00  0.00     0.275 C 
BRANCH  28  31
HETATM   31  O   UNK N   1      35.322  39.782  53.319  0.00  0.00    -0.391 OA
HETATM   32  C   UNK N   1      34.871  39.528  52.009  0.00  0.00     0.202 C 
ENDBRANCH  28  31
ENDBRANCH  24  25
ENDBRANCH  23  24
ENDBRANCH  21  23
ENDBRANCH   1  17
BRANCH   4  33
HETATM   33  C   UNK N   1      39.612  38.826  50.571  0.00  0.00     0.272 C 
HETATM   34  O   UNK N   1      39.425  39.759  49.802  0.00  0.00    -0.266 OA
HETATM   35  N   UNK N   1      38.804  37.706  50.474  0.00  0.00    -0.343 N 
HETATM   36  C   UNK N   1      37.802  37.674  49.399  0.00  0.00     0.152 C 
HETATM   37  C   UNK N   1      39.080  36.501  51.271  0.00  0.00     0.152 C 
HETATM   38  C   UNK N   1      36.956  36.402  49.379  0.00  0.00     0.187 C 
HETATM   39  O   UNK N   1      37.762  35.275  49.648  0.00  0.00    -0.388 OA
HETATM   40  C   UNK N   1      38.105  35.347  51.015  0.00  0.00     0.187 C 
ENDBRANCH   4  33
TORSDOF 6
ENDMDL
MODEL 7
REMARK VINA RESULT:      -7.8      5.547      9.672
REMARK  6 active torsions:
REMARK  status: ('A' for Active; 'I' for Inactive)
REMARK    1  A    between atoms: O_2  and  C_3 
REMARK    2  A    between atoms: N_6  and  C_7 
REMARK    3  A    between atoms: C_7  and  C_8 
REMARK    4  A    between atoms: C_8  and  N_9 
REMARK    5  A    between atoms: C_13  and  N_14 
REMARK    6  A    between atoms: C_17  and  C_18 
REMARK       I    between atoms: C_18  and  N_20 
ROOT
HETATM    1  N   UNK N   1      41.563  39.126  53.859  0.00  0.00    -0.284 N 
HETATM    2  N   UNK N   1      40.424  39.090  53.181  0.00  0.00    -0.292 N 
ATOM      3  HN  UNK N   1      39.494  39.157  53.594  1.00  0.00     0.187 HD
HETATM    4  C   UNK N   1      40.676  38.952  51.873  0.00  0.00     0.126 A 
HETATM    5  C   UNK N   1      42.050  38.911  51.692  0.00  0.00     0.019 A 
HETATM    6  C   UNK N   1      42.604  39.057  52.977  0.00  0.00     0.072 A 
HETATM    7  C   UNK N   1      44.092  39.108  53.274  0.00  0.00     0.014 A 
HETATM    8  C   UNK N   1      44.618  39.687  54.451  0.00  0.00     0.015 A 
HETATM    9  C   UNK N   1      45.999  39.726  54.674  0.00  0.00     0.001 A 
HETATM   10  C   UNK N   1      46.881  39.201  53.731  0.00  0.00     0.002 A 
HETATM   11  C   UNK N   1      46.390  38.659  52.548  0.00  0.00     0.024 A 
HETATM   12  C   UNK N   1      45.011  38.625  52.315  0.00  0.00     0.072 A 
HETATM   13  S   UNK N   1      44.384  38.006  50.783  0.00  0.00     0.180 S 
HETATM   14  O   UNK N   1      45.375  38.231  49.631  0.00  0.00    -0.222 OA
HETATM   15  O   UNK N   1      44.309  36.473  50.855  0.00  0.00    -0.222 OA
HETATM   16  C   UNK N   1      42.762  38.667  50.388  0.00  0.00     0.189 C 
ENDROOT
BRANCH   1  17
HETATM   17  C   UNK N   1      41.535  39.098  55.335  0.00  0.00     0.137 C 
HETATM   18  C   UNK N   1      41.364  40.500  55.918  0.00  0.00     0.031 C 
HETATM   19  C   UNK N   1      41.396  40.433  57.467  0.00  0.00     0.032 C 
HETATM   20  C   UNK N   1      40.754  39.136  58.015  0.00  0.00     0.272 C 
HETATM   21  N   UNK N   1      39.713  38.698  57.081  0.00  0.00     0.092 N 
HETATM   22  C   UNK N   1      40.329  38.216  55.813  0.00  0.00     0.299 C 
BRANCH  21  23
HETATM   23  C   UNK N   1      38.749  37.726  57.642  0.00  0.00     0.302 C 
BRANCH  23  24
HETATM   24  C   UNK N   1      38.938  36.348  56.967  0.00  0.00     0.302 C 
BRANCH  24  25
HETATM   25  N   UNK N   1      37.670  35.790  56.443  0.00  0.00     0.090 N 
HETATM   26  C   UNK N   1      36.812  35.248  57.526  0.00  0.00     0.275 C 
HETATM   27  C   UNK N   1      37.349  33.914  58.079  0.00  0.00     0.062 C 
HETATM   28  C   UNK N   1      37.449  32.882  56.950  0.00  0.00     0.124 C 
HETATM   29  C   UNK N   1      38.355  33.444  55.842  0.00  0.00     0.062 C 
HETATM   30  C   UNK N   1      37.825  34.805  55.345  0.00  0.00     0.275 C 
BRANCH  28  31
HETATM   31  O   UNK N   1      36.147  32.634  56.441  0.00  0.00    -0.391 OA
HETATM   32  C   UNK N   1      36.144  31.517  55.583  0.00  0.00     0.202 C 
ENDBRANCH  28  31
ENDBRANCH  24  25
ENDBRANCH  23  24
ENDBRANCH  21  23
ENDBRANCH   1  17
BRANCH   4  33
HETATM   33  C   UNK N   1      39.625  38.790  50.816  0.00  0.00     0.272 C 
HETATM   34  O   UNK N   1      39.532  39.669  49.969  0.00  0.00    -0.266 OA
HETATM   35  N   UNK N   1      38.799  37.683  50.725  0.00  0.00    -0.343 N 
HETATM   36  C   UNK N   1      37.896  37.595  49.568  0.00  0.00     0.152 C 
HETATM   37  C   UNK N   1      38.970  36.533  51.626  0.00  0.00     0.152 C 
HETATM   38  C   UNK N   1      37.021  36.342  49.560  0.00  0.00     0.187 C 
HETATM   39  O   UNK N   1      37.769  35.221  49.979  0.00  0.00    -0.388 OA
HETATM   40  C   UNK N   1      37.991  35.384  51.363  0.00  0.00     0.187 C 
ENDBRANCH   4  33
TORSDOF 6
ENDMDL
MODEL 8
REMARK VINA RESULT:      -7.7      3.503      6.712
REMARK  6 active torsions:
REMARK  status: ('A' for Active; 'I' for Inactive)
REMARK    1  A    between atoms: O_2  and  C_3 
REMARK    2  A    between atoms: N_6  and  C_7 
REMARK    3  A    between atoms: C_7  and  C_8 
REMARK    4  A    between atoms: C_8  and  N_9 
REMARK    5  A    between atoms: C_13  and  N_14 
REMARK    6  A    between atoms: C_17  and  C_18 
REMARK       I    between atoms: C_18  and  N_20 
ROOT
HETATM    1  N   UNK N   1      38.992  35.161  49.920  0.00  0.00    -0.284 N 
HETATM    2  N   UNK N   1      39.302  34.410  48.871  0.00  0.00    -0.292 N 
ATOM      3  HN  UNK N   1      38.751  33.622  48.532  1.00  0.00     0.187 HD
HETATM    4  C   UNK N   1      40.445  34.841  48.324  0.00  0.00     0.126 A 
HETATM    5  C   UNK N   1      40.893  35.936  49.046  0.00  0.00     0.019 A 
HETATM    6  C   UNK N   1      39.929  36.147  50.049  0.00  0.00     0.072 A 
HETATM    7  C   UNK N   1      39.977  37.270  51.069  0.00  0.00     0.014 A 
HETATM    8  C   UNK N   1      38.829  37.733  51.751  0.00  0.00     0.015 A 
HETATM    9  C   UNK N   1      38.919  38.783  52.672  0.00  0.00     0.001 A 
HETATM   10  C   UNK N   1      40.144  39.397  52.924  0.00  0.00     0.002 A 
HETATM   11  C   UNK N   1      41.282  38.984  52.238  0.00  0.00     0.024 A 
HETATM   12  C   UNK N   1      41.197  37.941  51.311  0.00  0.00     0.072 A 
HETATM   13  S   UNK N   1      42.622  37.461  50.381  0.00  0.00     0.180 S 
HETATM   14  O   UNK N   1      43.579  38.641  50.159  0.00  0.00    -0.222 OA
HETATM   15  O   UNK N   1      43.474  36.504  51.230  0.00  0.00    -0.222 OA
HETATM   16  C   UNK N   1      42.193  36.665  48.831  0.00  0.00     0.189 C 
ENDROOT
BRANCH   1  17
HETATM   17  C   UNK N   1      37.865  34.769  50.790  0.00  0.00     0.137 C 
HETATM   18  C   UNK N   1      36.602  35.565  50.462  0.00  0.00     0.031 C 
HETATM   19  C   UNK N   1      35.461  35.166  51.433  0.00  0.00     0.032 C 
HETATM   20  C   UNK N   1      35.517  33.670  51.825  0.00  0.00     0.272 C 
HETATM   21  N   UNK N   1      36.107  32.917  50.715  0.00  0.00     0.092 N 
HETATM   22  C   UNK N   1      37.555  33.247  50.582  0.00  0.00     0.299 C 
BRANCH  21  23
HETATM   23  C   UNK N   1      35.866  31.458  50.762  0.00  0.00     0.302 C 
BRANCH  23  24
HETATM   24  C   UNK N   1      35.240  30.985  49.430  0.00  0.00     0.302 C 
BRANCH  24  25
HETATM   25  N   UNK N   1      36.239  30.852  48.344  0.00  0.00     0.090 N 
HETATM   26  C   UNK N   1      35.986  31.807  47.236  0.00  0.00     0.275 C 
HETATM   27  C   UNK N   1      34.774  31.393  46.381  0.00  0.00     0.062 C 
HETATM   28  C   UNK N   1      34.997  29.993  45.799  0.00  0.00     0.124 C 
HETATM   29  C   UNK N   1      35.240  29.007  46.953  0.00  0.00     0.062 C 
HETATM   30  C   UNK N   1      36.423  29.473  47.826  0.00  0.00     0.275 C 
BRANCH  28  31
HETATM   31  O   UNK N   1      36.127  30.030  44.940  0.00  0.00    -0.391 OA
HETATM   32  C   UNK N   1      36.142  28.917  44.076  0.00  0.00     0.202 C 
ENDBRANCH  28  31
ENDBRANCH  24  25
ENDBRANCH  23  24
ENDBRANCH  21  23
ENDBRANCH   1  17
BRANCH   4  33
HETATM   33  C   UNK N   1      41.141  34.177  47.173  0.00  0.00     0.272 C 
HETATM   34  O   UNK N   1      40.777  34.476  46.043  0.00  0.00    -0.266 OA
HETATM   35  N   UNK N   1      42.195  33.293  47.325  0.00  0.00    -0.343 N 
HETATM   36  C   UNK N   1      42.866  32.811  46.110  0.00  0.00     0.152 C 
HETATM   37  C   UNK N   1      42.766  33.017  48.652  0.00  0.00     0.152 C 
HETATM   38  C   UNK N   1      44.010  31.834  46.381  0.00  0.00     0.187 C 
HETATM   39  O   UNK N   1      44.760  32.259  47.500  0.00  0.00    -0.388 OA
HETATM   40  C   UNK N   1      43.946  32.039  48.631  0.00  0.00     0.187 C 
ENDBRANCH   4  33
TORSDOF 6
ENDMDL
MODEL 9
REMARK VINA RESULT:      -7.7      4.459      6.890
REMARK  6 active torsions:
REMARK  status: ('A' for Active; 'I' for Inactive)
REMARK    1  A    between atoms: O_2  and  C_3 
REMARK    2  A    between atoms: N_6  and  C_7 
REMARK    3  A    between atoms: C_7  and  C_8 
REMARK    4  A    between atoms: C_8  and  N_9 
REMARK    5  A    between atoms: C_13  and  N_14 
REMARK    6  A    between atoms: C_17  and  C_18 
REMARK       I    between atoms: C_18  and  N_20 
ROOT
HETATM    1  N   UNK N   1      41.171  39.004  53.148  0.00  0.00    -0.284 N 
HETATM    2  N   UNK N   1      40.474  39.337  54.226  0.00  0.00    -0.292 N 
ATOM      3  HN  UNK N   1      39.458  39.401  54.269  1.00  0.00     0.187 HD
HETATM    4  C   UNK N   1      41.304  39.575  55.249  0.00  0.00     0.126 A 
HETATM    5  C   UNK N   1      42.606  39.372  54.816  0.00  0.00     0.019 A 
HETATM    6  C   UNK N   1      42.498  38.975  53.471  0.00  0.00     0.072 A 
HETATM    7  C   UNK N   1      43.673  38.606  52.584  0.00  0.00     0.014 A 
HETATM    8  C   UNK N   1      43.538  37.803  51.428  0.00  0.00     0.015 A 
HETATM    9  C   UNK N   1      44.653  37.475  50.650  0.00  0.00     0.001 A 
HETATM   10  C   UNK N   1      45.922  37.928  51.009  0.00  0.00     0.002 A 
HETATM   11  C   UNK N   1      46.086  38.688  52.162  0.00  0.00     0.024 A 
HETATM   12  C   UNK N   1      44.977  39.012  52.950  0.00  0.00     0.072 A 
HETATM   13  S   UNK N   1      45.188  39.913  54.455  0.00  0.00     0.180 S 
HETATM   14  O   UNK N   1      46.557  39.638  55.094  0.00  0.00    -0.222 OA
HETATM   15  O   UNK N   1      45.273  41.413  54.133  0.00  0.00    -0.222 OA
HETATM   16  C   UNK N   1      43.853  39.626  55.620  0.00  0.00     0.189 C 
ENDROOT
BRANCH   1  17
HETATM   17  C   UNK N   1      40.483  38.865  51.848  0.00  0.00     0.137 C 
HETATM   18  C   UNK N   1      41.147  39.721  50.770  0.00  0.00     0.031 C 
HETATM   19  C   UNK N   1      40.362  39.593  49.439  0.00  0.00     0.032 C 
HETATM   20  C   UNK N   1      39.769  38.177  49.239  0.00  0.00     0.272 C 
HETATM   21  N   UNK N   1      40.637  37.206  49.912  0.00  0.00     0.092 N 
HETATM   22  C   UNK N   1      40.539  37.367  51.390  0.00  0.00     0.299 C 
BRANCH  21  23
HETATM   23  C   UNK N   1      40.440  35.804  49.485  0.00  0.00     0.302 C 
BRANCH  23  24
HETATM   24  C   UNK N   1      41.808  35.095  49.355  0.00  0.00     0.302 C 
BRANCH  24  25
HETATM   25  N   UNK N   1      41.718  33.805  48.634  0.00  0.00     0.090 N 
HETATM   26  C   UNK N   1      43.014  33.082  48.624  0.00  0.00     0.275 C 
HETATM   27  C   UNK N   1      44.029  33.726  47.660  0.00  0.00     0.062 C 
HETATM   28  C   UNK N   1      43.456  33.754  46.239  0.00  0.00     0.124 C 
HETATM   29  C   UNK N   1      42.124  34.520  46.255  0.00  0.00     0.062 C 
HETATM   30  C   UNK N   1      41.146  33.889  47.268  0.00  0.00     0.275 C 
BRANCH  28  31
HETATM   31  O   UNK N   1      43.249  32.418  45.804  0.00  0.00    -0.391 OA
HETATM   32  C   UNK N   1      44.414  31.893  45.211  0.00  0.00     0.202 C 
ENDBRANCH  28  31
ENDBRANCH  24  25
ENDBRANCH  23  24
ENDBRANCH  21  23
ENDBRANCH   1  17
BRANCH   4  33
HETATM   33  C   UNK N   1      40.871  40.057  56.602  0.00  0.00     0.272 C 
HETATM   34  O   UNK N   1      40.956  41.256  56.830  0.00  0.00    -0.266 OA
HETATM   35  N   UNK N   1      40.339  39.226  57.573  0.00  0.00    -0.343 N 
HETATM   36  C   UNK N   1      39.841  39.849  58.808  0.00  0.00     0.152 C 
HETATM   37  C   UNK N   1      40.077  37.806  57.296  0.00  0.00     0.152 C 
HETATM   38  C   UNK N   1      39.280  38.851  59.821  0.00  0.00     0.187 C 
HETATM   39  O   UNK N   1      38.529  37.854  59.160  0.00  0.00    -0.388 OA
HETATM   40  C   UNK N   1      39.459  37.045  58.473  0.00  0.00     0.187 C 
ENDBRANCH   4  33
TORSDOF 6
ENDMDL
