MODEL 1
REMARK VINA RESULT:      -8.2      0.000      0.000
REMARK  5 active torsions:
REMARK  status: ('A' for Active; 'I' for Inactive)
REMARK    1  A    between atoms: C_2  and  C_3 
REMARK       I    between atoms: C_2  and  N_33 
REMARK    2  A    between atoms: N_6  and  C_7 
REMARK    3  A    between atoms: N_11  and  C_12 
REMARK    4  A    between atoms: C_12  and  C_13 
REMARK    5  A    between atoms: C_13  and  N_14 
ROOT
HETATM    1  C   UNK N   1      42.103  38.550  52.150  0.00  0.00     0.126 A 
HETATM    2  N   UNK N   1      40.779  38.720  52.308  0.00  0.00    -0.292 N 
ATOM      3  HN  UNK N   1      40.084  38.606  51.571  1.00  0.00     0.187 HD
HETATM    4  N   UNK N   1      40.506  39.061  53.563  0.00  0.00    -0.284 N 
HETATM    5  C   UNK N   1      41.687  39.111  54.267  0.00  0.00     0.072 A 
HETATM    6  C   UNK N   1      42.721  38.789  53.370  0.00  0.00     0.019 A 
HETATM    7  C   UNK N   1      44.192  38.802  53.697  0.00  0.00     0.189 C 
HETATM    8  S   UNK N   1      44.427  40.273  54.681  0.00  0.00     0.180 S 
HETATM    9  O   UNK N   1      44.263  41.550  53.842  0.00  0.00    -0.222 OA
HETATM   10  O   UNK N   1      45.856  40.371  55.236  0.00  0.00    -0.222 OA
HETATM   11  C   UNK N   1      43.215  40.205  55.973  0.00  0.00     0.072 A 
HETATM   12  C   UNK N   1      43.507  40.709  57.244  0.00  0.00     0.024 A 
HETATM   13  C   UNK N   1      42.567  40.604  58.264  0.00  0.00     0.002 A 
HETATM   14  C   UNK N   1      41.344  39.984  58.020  0.00  0.00     0.001 A 
HETATM   15  C   UNK N   1      41.044  39.485  56.747  0.00  0.00     0.015 A 
HETATM   16  C   UNK N   1      41.962  39.599  55.687  0.00  0.00     0.014 A 
ENDROOT
BRANCH   4  17
HETATM   17  C   UNK N   1      39.128  39.510  53.868  0.00  0.00     0.137 C 
HETATM   18  C   UNK N   1      39.064  40.925  54.472  0.00  0.00     0.031 C 
HETATM   19  C   UNK N   1      37.609  41.367  54.605  0.00  0.00     0.032 C 
HETATM   20  C   UNK N   1      36.805  40.315  55.396  0.00  0.00     0.272 C 
HETATM   21  N   UNK N   1      36.864  38.971  54.767  0.00  0.00     0.092 N 
HETATM   22  C   UNK N   1      38.258  38.485  54.626  0.00  0.00     0.299 C 
BRANCH  21  23
HETATM   23  C   UNK N   1      36.062  38.851  53.524  0.00  0.00     0.302 C 
BRANCH  23  24
HETATM   24  C   UNK N   1      36.011  37.387  53.057  0.00  0.00     0.302 C 
BRANCH  24  25
HETATM   25  N   UNK N   1      36.131  37.276  51.586  0.00  0.00     0.094 N 
HETATM   26  C   UNK N   1      36.640  38.523  50.964  0.00  0.00     0.298 C 
HETATM   27  C   UNK N   1      37.989  38.318  50.249  0.00  0.00     0.198 C 
HETATM   28  O   UNK N   1      37.924  37.306  49.256  0.00  0.00    -0.388 OA
HETATM   29  C   UNK N   1      37.182  36.156  49.655  0.00  0.00     0.198 C 
HETATM   30  C   UNK N   1      36.886  36.079  51.161  0.00  0.00     0.298 C 
ENDBRANCH  24  25
ENDBRANCH  23  24
ENDBRANCH  21  23
ENDBRANCH   4  17
BRANCH   1  31
HETATM   31  C   UNK N   1      42.768  38.253  50.833  0.00  0.00     0.272 C 
HETATM   32  O   UNK N   1      43.661  39.002  50.467  0.00  0.00    -0.266 OA
HETATM   33  N   UNK N   1      42.411  37.204  50.008  0.00  0.00    -0.343 N 
HETATM   34  C   UNK N   1      41.342  36.267  50.373  0.00  0.00     0.152 C 
HETATM   35  C   UNK N   1      42.993  37.171  48.657  0.00  0.00     0.152 C 
HETATM   36  C   UNK N   1      41.224  35.084  49.408  0.00  0.00     0.187 C 
HETATM   37  O   UNK N   1      41.321  35.525  48.072  0.00  0.00    -0.388 OA
HETATM   38  C   UNK N   1      42.664  35.904  47.867  0.00  0.00     0.187 C 
ENDBRANCH   1  31
TORSDOF 5
ENDMDL
MODEL 2
REMARK VINA RESULT:      -8.1      3.437      7.727
REMARK  5 active torsions:
REMARK  status: ('A' for Active; 'I' for Inactive)
REMARK    1  A    between atoms: C_2  and  C_3 
REMARK       I    between atoms: C_2  and  N_33 
REMARK    2  A    between atoms: N_6  and  C_7 
REMARK    3  A    between atoms: N_11  and  C_12 
REMARK    4  A    between atoms: C_12  and  C_13 
REMARK    5  A    between atoms: C_13  and  N_14 
ROOT
HETATM    1  C   UNK N   1      39.925  37.947  49.864  0.00  0.00     0.126 A 
HETATM    2  N   UNK N   1      40.180  36.828  49.164  0.00  0.00    -0.292 N 
ATOM      3  HN  UNK N   1      39.471  36.231  48.740  1.00  0.00     0.187 HD
HETATM    4  N   UNK N   1      41.489  36.610  49.108  0.00  0.00    -0.284 N 
HETATM    5  C   UNK N   1      42.129  37.623  49.785  0.00  0.00     0.072 A 
HETATM    6  C   UNK N   1      41.135  38.485  50.279  0.00  0.00     0.019 A 
HETATM    7  C   UNK N   1      41.383  39.688  51.152  0.00  0.00     0.189 C 
HETATM    8  S   UNK N   1      42.622  39.155  52.323  0.00  0.00     0.180 S 
HETATM    9  O   UNK N   1      42.057  38.132  53.320  0.00  0.00    -0.222 OA
HETATM   10  O   UNK N   1      43.112  40.310  53.208  0.00  0.00    -0.222 OA
HETATM   11  C   UNK N   1      43.935  38.446  51.366  0.00  0.00     0.072 A 
HETATM   12  C   UNK N   1      45.263  38.580  51.781  0.00  0.00     0.024 A 
HETATM   13  C   UNK N   1      46.290  38.064  50.996  0.00  0.00     0.002 A 
HETATM   14  C   UNK N   1      45.993  37.430  49.792  0.00  0.00     0.001 A 
HETATM   15  C   UNK N   1      44.664  37.289  49.376  0.00  0.00     0.015 A 
HETATM   16  C   UNK N   1      43.601  37.775  50.159  0.00  0.00     0.014 A 
ENDROOT
BRANCH   4  17
HETATM   17  C   UNK N   1      41.946  35.306  48.574  0.00  0.00     0.137 C 
HETATM   18  C   UNK N   1      42.658  34.430  49.622  0.00  0.00     0.031 C 
HETATM   19  C   UNK N   1      42.949  33.052  49.034  0.00  0.00     0.032 C 
HETATM   20  C   UNK N   1      43.726  33.194  47.709  0.00  0.00     0.272 C 
HETATM   21  N   UNK N   1      42.995  34.017  46.713  0.00  0.00     0.092 N 
HETATM   22  C   UNK N   1      42.697  35.376  47.228  0.00  0.00     0.299 C 
BRANCH  21  23
HETATM   23  C   UNK N   1      41.821  33.337  46.112  0.00  0.00     0.302 C 
BRANCH  23  24
HETATM   24  C   UNK N   1      42.213  32.658  44.790  0.00  0.00     0.302 C 
BRANCH  24  25
HETATM   25  N   UNK N   1      41.431  33.184  43.649  0.00  0.00     0.094 N 
HETATM   26  C   UNK N   1      40.921  34.555  43.898  0.00  0.00     0.298 C 
HETATM   27  C   UNK N   1      41.486  35.585  42.901  0.00  0.00     0.198 C 
HETATM   28  O   UNK N   1      41.215  35.235  41.553  0.00  0.00    -0.388 OA
HETATM   29  C   UNK N   1      41.390  33.848  41.273  0.00  0.00     0.198 C 
HETATM   30  C   UNK N   1      42.146  33.068  42.360  0.00  0.00     0.298 C 
ENDBRANCH  24  25
ENDBRANCH  23  24
ENDBRANCH  21  23
ENDBRANCH   4  17
BRANCH   1  31
HETATM   31  C   UNK N   1      38.543  38.438  50.203  0.00  0.00     0.272 C 
HETATM   32  O   UNK N   1      38.075  39.332  49.515  0.00  0.00    -0.266 OA
HETATM   33  N   UNK N   1      37.791  37.958  51.258  0.00  0.00    -0.343 N 
HETATM   34  C   UNK N   1      38.288  36.892  52.135  0.00  0.00     0.152 C 
HETATM   35  C   UNK N   1      36.560  38.685  51.603  0.00  0.00     0.152 C 
HETATM   36  C   UNK N   1      37.235  36.390  53.127  0.00  0.00     0.187 C 
HETATM   37  O   UNK N   1      36.536  37.474  53.697  0.00  0.00    -0.388 OA
HETATM   38  C   UNK N   1      35.713  38.003  52.679  0.00  0.00     0.187 C 
ENDBRANCH   1  31
TORSDOF 5
ENDMDL
MODEL 3
REMARK VINA RESULT:      -8.1      3.001      7.227
REMARK  5 active torsions:
REMARK  status: ('A' for Active; 'I' for Inactive)
REMARK    1  A    between atoms: C_2  and  C_3 
REMARK       I    between atoms: C_2  and  N_33 
REMARK    2  A    between atoms: N_6  and  C_7 
REMARK    3  A    between atoms: N_11  and  C_12 
REMARK    4  A    between atoms: C_12  and  C_13 
REMARK    5  A    between atoms: C_13  and  N_14 
ROOT
HETATM    1  C   UNK N   1      41.477  39.541  52.699  0.00  0.00     0.126 A 
HETATM    2  N   UNK N   1      41.110  38.628  51.784  0.00  0.00    -0.292 N 
ATOM      3  HN  UNK N   1      40.152  38.324  51.615  1.00  0.00     0.187 HD
HETATM    4  N   UNK N   1      42.176  38.176  51.133  0.00  0.00    -0.284 N 
HETATM    5  C   UNK N   1      43.290  38.816  51.625  0.00  0.00     0.072 A 
HETATM    6  C   UNK N   1      42.856  39.692  52.635  0.00  0.00     0.019 A 
HETATM    7  C   UNK N   1      43.755  40.536  53.500  0.00  0.00     0.189 C 
HETATM    8  S   UNK N   1      45.123  39.467  53.916  0.00  0.00     0.180 S 
HETATM    9  O   UNK N   1      44.696  38.346  54.875  0.00  0.00    -0.222 OA
HETATM   10  O   UNK N   1      46.226  40.215  54.680  0.00  0.00    -0.222 OA
HETATM   11  C   UNK N   1      45.712  38.797  52.384  0.00  0.00     0.072 A 
HETATM   12  C   UNK N   1      47.075  38.543  52.201  0.00  0.00     0.024 A 
HETATM   13  C   UNK N   1      47.533  38.066  50.976  0.00  0.00     0.002 A 
HETATM   14  C   UNK N   1      46.634  37.858  49.932  0.00  0.00     0.001 A 
HETATM   15  C   UNK N   1      45.269  38.104  50.113  0.00  0.00     0.015 A 
HETATM   16  C   UNK N   1      44.770  38.562  51.346  0.00  0.00     0.014 A 
ENDROOT
BRANCH   4  17
HETATM   17  C   UNK N   1      41.994  37.002  50.248  0.00  0.00     0.137 C 
HETATM   18  C   UNK N   1      40.522  36.731  49.883  0.00  0.00     0.031 C 
HETATM   19  C   UNK N   1      40.442  35.613  48.847  0.00  0.00     0.032 C 
HETATM   20  C   UNK N   1      41.199  34.367  49.352  0.00  0.00     0.272 C 
HETATM   21  N   UNK N   1      42.622  34.660  49.663  0.00  0.00     0.092 N 
HETATM   22  C   UNK N   1      42.758  35.733  50.677  0.00  0.00     0.299 C 
BRANCH  21  23
HETATM   23  C   UNK N   1      43.472  34.861  48.463  0.00  0.00     0.302 C 
BRANCH  23  24
HETATM   24  C   UNK N   1      43.753  33.516  47.774  0.00  0.00     0.302 C 
BRANCH  24  25
HETATM   25  N   UNK N   1      43.636  33.618  46.302  0.00  0.00     0.094 N 
HETATM   26  C   UNK N   1      44.502  32.640  45.596  0.00  0.00     0.298 C 
HETATM   27  C   UNK N   1      43.692  31.639  44.751  0.00  0.00     0.198 C 
HETATM   28  O   UNK N   1      42.862  32.284  43.798  0.00  0.00    -0.388 OA
HETATM   29  C   UNK N   1      42.200  33.441  44.303  0.00  0.00     0.198 C 
HETATM   30  C   UNK N   1      42.235  33.579  45.833  0.00  0.00     0.298 C 
ENDBRANCH  24  25
ENDBRANCH  23  24
ENDBRANCH  21  23
ENDBRANCH   4  17
BRANCH   1  31
HETATM   31  C   UNK N   1      40.534  40.188  53.678  0.00  0.00     0.272 C 
HETATM   32  O   UNK N   1      40.007  41.239  53.347  0.00  0.00    -0.266 OA
HETATM   33  N   UNK N   1      40.252  39.678  54.931  0.00  0.00    -0.343 N 
HETATM   34  C   UNK N   1      40.852  38.425  55.404  0.00  0.00     0.152 C 
HETATM   35  C   UNK N   1      39.492  40.530  55.858  0.00  0.00     0.152 C 
HETATM   36  C   UNK N   1      40.276  37.950  56.741  0.00  0.00     0.187 C 
HETATM   37  O   UNK N   1      40.154  39.032  57.638  0.00  0.00    -0.388 OA
HETATM   38  C   UNK N   1      39.096  39.835  57.161  0.00  0.00     0.187 C 
ENDBRANCH   1  31
TORSDOF 5
ENDMDL
MODEL 4
REMARK VINA RESULT:      -8.0      3.067      7.034
REMARK  5 active torsions:
REMARK  status: ('A' for Active; 'I' for Inactive)
REMARK    1  A    between atoms: C_2  and  C_3 
REMARK       I    between atoms: C_2  and  N_33 
REMARK    2  A    between atoms: N_6  and  C_7 
REMARK    3  A    between atoms: N_11  and  C_12 
REMARK    4  A    between atoms: C_12  and  C_13 
REMARK    5  A    between atoms: C_13  and  N_14 
ROOT
HETATM    1  C   UNK N   1      38.287  38.539  52.593  0.00  0.00     0.126 A 
HETATM    2  N   UNK N   1      39.132  38.382  51.560  0.00  0.00    -0.292 N 
ATOM      3  HN  UNK N   1      38.892  37.946  50.671  1.00  0.00     0.187 HD
HETATM    4  N   UNK N   1      40.327  38.876  51.865  0.00  0.00    -0.284 N 
HETATM    5  C   UNK N   1      40.274  39.387  53.141  0.00  0.00     0.072 A 
HETATM    6  C   UNK N   1      38.971  39.173  53.622  0.00  0.00     0.019 A 
HETATM    7  C   UNK N   1      38.490  39.504  55.011  0.00  0.00     0.189 C 
HETATM    8  S   UNK N   1      39.822  38.999  56.087  0.00  0.00     0.180 S 
HETATM    9  O   UNK N   1      39.961  37.470  56.140  0.00  0.00    -0.222 OA
HETATM   10  O   UNK N   1      39.567  39.403  57.546  0.00  0.00    -0.222 OA
HETATM   11  C   UNK N   1      41.294  39.745  55.438  0.00  0.00     0.072 A 
HETATM   12  C   UNK N   1      42.307  40.176  56.299  0.00  0.00     0.024 A 
HETATM   13  C   UNK N   1      43.435  40.807  55.782  0.00  0.00     0.002 A 
HETATM   14  C   UNK N   1      43.543  41.021  54.410  0.00  0.00     0.001 A 
HETATM   15  C   UNK N   1      42.534  40.585  53.544  0.00  0.00     0.015 A 
HETATM   16  C   UNK N   1      41.394  39.921  54.031  0.00  0.00     0.014 A 
ENDROOT
BRANCH   4  17
HETATM   17  C   UNK N   1      41.446  38.589  50.937  0.00  0.00     0.137 C 
HETATM   18  C   UNK N   1      41.541  39.583  49.765  0.00  0.00     0.031 C 
HETATM   19  C   UNK N   1      42.806  39.312  48.956  0.00  0.00     0.032 C 
HETATM   20  C   UNK N   1      42.853  37.832  48.525  0.00  0.00     0.272 C 
HETATM   21  N   UNK N   1      42.793  36.905  49.683  0.00  0.00     0.092 N 
HETATM   22  C   UNK N   1      41.572  37.115  50.498  0.00  0.00     0.299 C 
BRANCH  21  23
HETATM   23  C   UNK N   1      44.042  36.855  50.482  0.00  0.00     0.302 C 
BRANCH  23  24
HETATM   24  C   UNK N   1      45.259  37.166  49.595  0.00  0.00     0.302 C 
BRANCH  24  25
HETATM   25  N   UNK N   1      46.494  37.328  50.393  0.00  0.00     0.094 N 
HETATM   26  C   UNK N   1      47.665  37.693  49.557  0.00  0.00     0.298 C 
HETATM   27  C   UNK N   1      48.246  39.071  49.925  0.00  0.00     0.198 C 
HETATM   28  O   UNK N   1      48.620  39.150  51.292  0.00  0.00    -0.388 OA
HETATM   29  C   UNK N   1      47.682  38.546  52.180  0.00  0.00     0.198 C 
HETATM   30  C   UNK N   1      46.317  38.232  51.549  0.00  0.00     0.298 C 
ENDBRANCH  24  25
ENDBRANCH  23  24
ENDBRANCH  21  23
ENDBRANCH   4  17
BRANCH   1  31
HETATM   31  C   UNK N   1      36.878  38.009  52.624  0.00  0.00     0.272 C 
HETATM   32  O   UNK N   1      35.978  38.774  52.313  0.00  0.00    -0.266 OA
HETATM   33  N   UNK N   1      36.545  36.725  53.008  0.00  0.00    -0.343 N 
HETATM   34  C   UNK N   1      37.569  35.750  53.404  0.00  0.00     0.152 C 
HETATM   35  C   UNK N   1      35.120  36.420  53.204  0.00  0.00     0.152 C 
HETATM   36  C   UNK N   1      37.006  34.343  53.623  0.00  0.00     0.187 C 
HETATM   37  O   UNK N   1      35.799  34.401  54.350  0.00  0.00    -0.388 OA
HETATM   38  C   UNK N   1      34.829  34.944  53.480  0.00  0.00     0.187 C 
ENDBRANCH   1  31
TORSDOF 5
ENDMDL
MODEL 5
REMARK VINA RESULT:      -8.0      2.801      6.674
REMARK  5 active torsions:
REMARK  status: ('A' for Active; 'I' for Inactive)
REMARK    1  A    between atoms: C_2  and  C_3 
REMARK       I    between atoms: C_2  and  N_33 
REMARK    2  A    between atoms: N_6  and  C_7 
REMARK    3  A    between atoms: N_11  and  C_12 
REMARK    4  A    between atoms: C_12  and  C_13 
REMARK    5  A    between atoms: C_13  and  N_14 
ROOT
HETATM    1  C   UNK N   1      38.756  38.876  52.708  0.00  0.00     0.126 A 
HETATM    2  N   UNK N   1      39.452  38.399  51.662  0.00  0.00    -0.292 N 
ATOM      3  HN  UNK N   1      39.042  37.947  50.845  1.00  0.00     0.187 HD
HETATM    4  N   UNK N   1      40.752  38.599  51.846  0.00  0.00    -0.284 N 
HETATM    5  C   UNK N   1      40.928  39.239  53.051  0.00  0.00     0.072 A 
HETATM    6  C   UNK N   1      39.654  39.419  53.617  0.00  0.00     0.019 A 
HETATM    7  C   UNK N   1      39.382  40.008  54.977  0.00  0.00     0.189 C 
HETATM    8  S   UNK N   1      40.626  39.295  56.040  0.00  0.00     0.180 S 
HETATM    9  O   UNK N   1      40.383  37.796  56.273  0.00  0.00    -0.222 OA
HETATM   10  O   UNK N   1      40.594  39.903  57.450  0.00  0.00    -0.222 OA
HETATM   11  C   UNK N   1      42.181  39.565  55.234  0.00  0.00     0.072 A 
HETATM   12  C   UNK N   1      43.334  39.810  55.986  0.00  0.00     0.024 A 
HETATM   13  C   UNK N   1      44.540  40.072  55.341  0.00  0.00     0.002 A 
HETATM   14  C   UNK N   1      44.590  40.104  53.949  0.00  0.00     0.001 A 
HETATM   15  C   UNK N   1      43.440  39.852  53.193  0.00  0.00     0.015 A 
HETATM   16  C   UNK N   1      42.212  39.559  53.813  0.00  0.00     0.014 A 
ENDROOT
BRANCH   4  17
HETATM   17  C   UNK N   1      41.689  37.938  50.907  0.00  0.00     0.137 C 
HETATM   18  C   UNK N   1      42.720  38.901  50.289  0.00  0.00     0.031 C 
HETATM   19  C   UNK N   1      43.737  38.114  49.467  0.00  0.00     0.032 C 
HETATM   20  C   UNK N   1      43.011  37.230  48.432  0.00  0.00     0.272 C 
HETATM   21  N   UNK N   1      42.050  36.292  49.067  0.00  0.00     0.092 N 
HETATM   22  C   UNK N   1      41.028  37.007  49.869  0.00  0.00     0.299 C 
BRANCH  21  23
HETATM   23  C   UNK N   1      42.692  35.164  49.786  0.00  0.00     0.302 C 
BRANCH  23  24
HETATM   24  C   UNK N   1      42.489  33.851  49.013  0.00  0.00     0.302 C 
BRANCH  24  25
HETATM   25  N   UNK N   1      43.429  33.732  47.876  0.00  0.00     0.094 N 
HETATM   26  C   UNK N   1      44.272  32.513  47.963  0.00  0.00     0.298 C 
HETATM   27  C   UNK N   1      44.038  31.549  46.785  0.00  0.00     0.198 C 
HETATM   28  O   UNK N   1      44.263  32.170  45.528  0.00  0.00    -0.388 OA
HETATM   29  C   UNK N   1      43.741  33.493  45.440  0.00  0.00     0.198 C 
HETATM   30  C   UNK N   1      42.763  33.870  46.564  0.00  0.00     0.298 C 
ENDBRANCH  24  25
ENDBRANCH  23  24
ENDBRANCH  21  23
ENDBRANCH   4  17
BRANCH   1  31
HETATM   31  C   UNK N   1      37.267  38.732  52.872  0.00  0.00     0.272 C 
HETATM   32  O   UNK N   1      36.561  39.641  52.462  0.00  0.00    -0.266 OA
HETATM   33  N   UNK N   1      36.659  37.650  53.479  0.00  0.00    -0.343 N 
HETATM   34  C   UNK N   1      37.439  36.524  54.005  0.00  0.00     0.152 C 
HETATM   35  C   UNK N   1      35.220  37.752  53.768  0.00  0.00     0.152 C 
HETATM   36  C   UNK N   1      36.567  35.358  54.479  0.00  0.00     0.187 C 
HETATM   37  O   UNK N   1      35.466  35.834  55.221  0.00  0.00    -0.388 OA
HETATM   38  C   UNK N   1      34.598  36.460  54.301  0.00  0.00     0.187 C 
ENDBRANCH   1  31
TORSDOF 5
ENDMDL
MODEL 6
REMARK VINA RESULT:      -7.9      2.612      4.642
REMARK  5 active torsions:
REMARK  status: ('A' for Active; 'I' for Inactive)
REMARK    1  A    between atoms: C_2  and  C_3 
REMARK       I    between atoms: C_2  and  N_33 
REMARK    2  A    between atoms: N_6  and  C_7 
REMARK    3  A    between atoms: N_11  and  C_12 
REMARK    4  A    between atoms: C_12  and  C_13 
REMARK    5  A    between atoms: C_13  and  N_14 
ROOT
HETATM    1  C   UNK N   1      41.913  38.667  52.314  0.00  0.00     0.126 A 
HETATM    2  N   UNK N   1      40.604  38.861  52.548  0.00  0.00    -0.292 N 
ATOM      3  HN  UNK N   1      39.866  38.758  51.853  1.00  0.00     0.187 HD
HETATM    4  N   UNK N   1      40.411  39.208  53.815  0.00  0.00    -0.284 N 
HETATM    5  C   UNK N   1      41.631  39.237  54.450  0.00  0.00     0.072 A 
HETATM    6  C   UNK N   1      42.605  38.897  53.495  0.00  0.00     0.019 A 
HETATM    7  C   UNK N   1      44.093  38.884  53.736  0.00  0.00     0.189 C 
HETATM    8  S   UNK N   1      44.411  40.351  54.701  0.00  0.00     0.180 S 
HETATM    9  O   UNK N   1      44.221  41.630  53.871  0.00  0.00    -0.222 OA
HETATM   10  O   UNK N   1      45.871  40.425  55.172  0.00  0.00    -0.222 OA
HETATM   11  C   UNK N   1      43.275  40.307  56.061  0.00  0.00     0.072 A 
HETATM   12  C   UNK N   1      43.650  40.806  57.312  0.00  0.00     0.024 A 
HETATM   13  C   UNK N   1      42.768  40.719  58.386  0.00  0.00     0.002 A 
HETATM   14  C   UNK N   1      41.522  40.121  58.214  0.00  0.00     0.001 A 
HETATM   15  C   UNK N   1      41.141  39.626  56.962  0.00  0.00     0.015 A 
HETATM   16  C   UNK N   1      41.997  39.722  55.851  0.00  0.00     0.014 A 
ENDROOT
BRANCH   4  17
HETATM   17  C   UNK N   1      39.061  39.682  54.199  0.00  0.00     0.137 C 
HETATM   18  C   UNK N   1      37.924  38.990  53.426  0.00  0.00     0.031 C 
HETATM   19  C   UNK N   1      36.574  39.419  53.994  0.00  0.00     0.032 C 
HETATM   20  C   UNK N   1      36.470  40.957  54.011  0.00  0.00     0.272 C 
HETATM   21  N   UNK N   1      37.564  41.588  54.793  0.00  0.00     0.092 N 
HETATM   22  C   UNK N   1      38.902  41.215  54.273  0.00  0.00     0.299 C 
BRANCH  21  23
HETATM   23  C   UNK N   1      37.427  41.424  56.261  0.00  0.00     0.302 C 
BRANCH  23  24
HETATM   24  C   UNK N   1      38.099  42.595  56.996  0.00  0.00     0.302 C 
BRANCH  24  25
HETATM   25  N   UNK N   1      37.141  43.685  57.286  0.00  0.00     0.094 N 
HETATM   26  C   UNK N   1      37.296  44.224  58.661  0.00  0.00     0.298 C 
HETATM   27  C   UNK N   1      37.698  45.710  58.669  0.00  0.00     0.198 C 
HETATM   28  O   UNK N   1      36.774  46.523  57.962  0.00  0.00    -0.388 OA
HETATM   29  C   UNK N   1      36.320  45.946  56.740  0.00  0.00     0.198 C 
HETATM   30  C   UNK N   1      37.146  44.744  56.256  0.00  0.00     0.298 C 
ENDBRANCH  24  25
ENDBRANCH  23  24
ENDBRANCH  21  23
ENDBRANCH   4  17
BRANCH   1  31
HETATM   31  C   UNK N   1      42.496  38.356  50.961  0.00  0.00     0.272 C 
HETATM   32  O   UNK N   1      43.402  39.069  50.557  0.00  0.00    -0.266 OA
HETATM   33  N   UNK N   1      42.049  37.335  50.145  0.00  0.00    -0.343 N 
HETATM   34  C   UNK N   1      40.959  36.442  50.556  0.00  0.00     0.152 C 
HETATM   35  C   UNK N   1      42.559  37.293  48.765  0.00  0.00     0.152 C 
HETATM   36  C   UNK N   1      40.738  35.278  49.586  0.00  0.00     0.187 C 
HETATM   37  O   UNK N   1      40.785  35.731  48.251  0.00  0.00    -0.388 OA
HETATM   38  C   UNK N   1      42.132  36.051  47.981  0.00  0.00     0.187 C 
ENDBRANCH   1  31
TORSDOF 5
ENDMDL
MODEL 7
REMARK VINA RESULT:      -7.8      2.555      6.680
REMARK  5 active torsions:
REMARK  status: ('A' for Active; 'I' for Inactive)
REMARK    1  A    between atoms: C_2  and  C_3 
REMARK       I    between atoms: C_2  and  N_33 
REMARK    2  A    between atoms: N_6  and  C_7 
REMARK    3  A    between atoms: N_11  and  C_12 
REMARK    4  A    between atoms: C_12  and  C_13 
REMARK    5  A    between atoms: C_13  and  N_14 
ROOT
HETATM    1  C   UNK N   1      39.884  39.813  53.138  0.00  0.00     0.126 A 
HETATM    2  N   UNK N   1      39.138  39.013  52.357  0.00  0.00    -0.292 N 
ATOM      3  HN  UNK N   1      38.148  38.818  52.497  1.00  0.00     0.187 HD
HETATM    4  N   UNK N   1      39.879  38.510  51.375  0.00  0.00    -0.284 N 
HETATM    5  C   UNK N   1      41.159  38.999  51.501  0.00  0.00     0.072 A 
HETATM    6  C   UNK N   1      41.177  39.833  52.632  0.00  0.00     0.019 A 
HETATM    7  C   UNK N   1      42.398  40.517  53.190  0.00  0.00     0.189 C 
HETATM    8  S   UNK N   1      43.692  39.291  53.092  0.00  0.00     0.180 S 
HETATM    9  O   UNK N   1      43.466  38.146  54.092  0.00  0.00    -0.222 OA
HETATM   10  O   UNK N   1      45.061  39.866  53.483  0.00  0.00    -0.222 OA
HETATM   11  C   UNK N   1      43.676  38.686  51.426  0.00  0.00     0.072 A 
HETATM   12  C   UNK N   1      44.869  38.314  50.798  0.00  0.00     0.024 A 
HETATM   13  C   UNK N   1      44.851  37.890  49.472  0.00  0.00     0.002 A 
HETATM   14  C   UNK N   1      43.648  37.851  48.771  0.00  0.00     0.001 A 
HETATM   15  C   UNK N   1      42.451  38.215  49.399  0.00  0.00     0.015 A 
HETATM   16  C   UNK N   1      42.431  38.623  50.745  0.00  0.00     0.014 A 
ENDROOT
BRANCH   4  17
HETATM   17  C   UNK N   1      39.286  37.431  50.551  0.00  0.00     0.137 C 
HETATM   18  C   UNK N   1      37.782  37.621  50.281  0.00  0.00     0.031 C 
HETATM   19  C   UNK N   1      37.293  36.559  49.300  0.00  0.00     0.032 C 
HETATM   20  C   UNK N   1      37.662  35.152  49.813  0.00  0.00     0.272 C 
HETATM   21  N   UNK N   1      39.124  34.997  50.030  0.00  0.00     0.092 N 
HETATM   22  C   UNK N   1      39.650  35.997  50.989  0.00  0.00     0.299 C 
BRANCH  21  23
HETATM   23  C   UNK N   1      39.912  34.898  48.777  0.00  0.00     0.302 C 
BRANCH  23  24
HETATM   24  C   UNK N   1      41.394  34.635  49.095  0.00  0.00     0.302 C 
BRANCH  24  25
HETATM   25  N   UNK N   1      42.034  33.785  48.067  0.00  0.00     0.094 N 
HETATM   26  C   UNK N   1      41.307  33.818  46.773  0.00  0.00     0.298 C 
HETATM   27  C   UNK N   1      42.166  34.392  45.630  0.00  0.00     0.198 C 
HETATM   28  O   UNK N   1      43.378  33.676  45.455  0.00  0.00    -0.388 OA
HETATM   29  C   UNK N   1      44.019  33.323  46.678  0.00  0.00     0.198 C 
HETATM   30  C   UNK N   1      43.479  34.055  47.916  0.00  0.00     0.298 C 
ENDBRANCH  24  25
ENDBRANCH  23  24
ENDBRANCH  21  23
ENDBRANCH   4  17
BRANCH   1  31
HETATM   31  C   UNK N   1      39.386  40.473  54.396  0.00  0.00     0.272 C 
HETATM   32  O   UNK N   1      38.893  41.586  54.295  0.00  0.00    -0.266 OA
HETATM   33  N   UNK N   1      39.479  39.906  55.653  0.00  0.00    -0.343 N 
HETATM   34  C   UNK N   1      40.067  38.577  55.856  0.00  0.00     0.152 C 
HETATM   35  C   UNK N   1      39.158  40.757  56.809  0.00  0.00     0.152 C 
HETATM   36  C   UNK N   1      39.916  38.066  57.292  0.00  0.00     0.187 C 
HETATM   37  O   UNK N   1      40.208  39.092  58.215  0.00  0.00    -0.388 OA
HETATM   38  C   UNK N   1      39.141  40.014  58.145  0.00  0.00     0.187 C 
ENDBRANCH   1  31
TORSDOF 5
ENDMDL
MODEL 8
REMARK VINA RESULT:      -7.7      8.901     12.297
REMARK  5 active torsions:
REMARK  status: ('A' for Active; 'I' for Inactive)
REMARK    1  A    between atoms: C_2  and  C_3 
REMARK       I    between atoms: C_2  and  N_33 
REMARK    2  A    between atoms: N_6  and  C_7 
REMARK    3  A    between atoms: N_11  and  C_12 
REMARK    4  A    between atoms: C_12  and  C_13 
REMARK    5  A    between atoms: C_13  and  N_14 
ROOT
HETATM    1  C   UNK N   1      40.263  33.821  45.694  0.00  0.00     0.126 A 
HETATM    2  N   UNK N   1      39.130  33.194  46.052  0.00  0.00    -0.292 N 
ATOM      3  HN  UNK N   1      38.935  32.824  46.981  1.00  0.00     0.187 HD
HETATM    4  N   UNK N   1      38.299  33.124  45.018  0.00  0.00    -0.284 N 
HETATM    5  C   UNK N   1      38.895  33.733  43.938  0.00  0.00     0.072 A 
HETATM    6  C   UNK N   1      40.159  34.180  44.358  0.00  0.00     0.019 A 
HETATM    7  C   UNK N   1      41.189  34.834  43.472  0.00  0.00     0.189 C 
HETATM    8  S   UNK N   1      41.146  33.896  41.954  0.00  0.00     0.180 S 
HETATM    9  O   UNK N   1      41.720  32.484  42.143  0.00  0.00    -0.222 OA
HETATM   10  O   UNK N   1      42.035  34.520  40.868  0.00  0.00    -0.222 OA
HETATM   11  C   UNK N   1      39.445  33.827  41.462  0.00  0.00     0.072 A 
HETATM   12  C   UNK N   1      39.100  33.840  40.107  0.00  0.00     0.024 A 
HETATM   13  C   UNK N   1      37.759  33.836  39.733  0.00  0.00     0.002 A 
HETATM   14  C   UNK N   1      36.766  33.836  40.709  0.00  0.00     0.001 A 
HETATM   15  C   UNK N   1      37.107  33.816  42.066  0.00  0.00     0.015 A 
HETATM   16  C   UNK N   1      38.452  33.792  42.478  0.00  0.00     0.014 A 
ENDROOT
BRANCH   4  17
HETATM   17  C   UNK N   1      37.097  32.270  45.160  0.00  0.00     0.137 C 
HETATM   18  C   UNK N   1      35.832  33.051  45.560  0.00  0.00     0.031 C 
HETATM   19  C   UNK N   1      34.618  32.126  45.526  0.00  0.00     0.032 C 
HETATM   20  C   UNK N   1      34.879  30.877  46.392  0.00  0.00     0.272 C 
HETATM   21  N   UNK N   1      36.087  30.131  45.956  0.00  0.00     0.092 N 
HETATM   22  C   UNK N   1      37.302  30.981  45.984  0.00  0.00     0.299 C 
BRANCH  21  23
HETATM   23  C   UNK N   1      35.910  29.384  44.686  0.00  0.00     0.302 C 
BRANCH  23  24
HETATM   24  C   UNK N   1      34.951  28.200  44.891  0.00  0.00     0.302 C 
BRANCH  24  25
HETATM   25  N   UNK N   1      34.018  28.047  43.752  0.00  0.00     0.094 N 
HETATM   26  C   UNK N   1      32.914  29.039  43.788  0.00  0.00     0.298 C 
HETATM   27  C   UNK N   1      32.926  29.977  42.566  0.00  0.00     0.198 C 
HETATM   28  O   UNK N   1      32.860  29.266  41.340  0.00  0.00    -0.388 OA
HETATM   29  C   UNK N   1      33.676  28.097  41.310  0.00  0.00     0.198 C 
HETATM   30  C   UNK N   1      34.706  28.008  42.445  0.00  0.00     0.298 C 
ENDBRANCH  24  25
ENDBRANCH  23  24
ENDBRANCH  21  23
ENDBRANCH   4  17
BRANCH   1  31
HETATM   31  C   UNK N   1      41.458  33.991  46.594  0.00  0.00     0.272 C 
HETATM   32  O   UNK N   1      41.387  34.831  47.478  0.00  0.00    -0.266 OA
HETATM   33  N   UNK N   1      42.632  33.274  46.461  0.00  0.00    -0.343 N 
HETATM   34  C   UNK N   1      42.798  32.255  45.419  0.00  0.00     0.152 C 
HETATM   35  C   UNK N   1      43.787  33.704  47.265  0.00  0.00     0.152 C 
HETATM   36  C   UNK N   1      44.100  31.462  45.554  0.00  0.00     0.187 C 
HETATM   37  O   UNK N   1      45.177  32.326  45.843  0.00  0.00    -0.388 OA
HETATM   38  C   UNK N   1      44.995  32.770  47.170  0.00  0.00     0.187 C 
ENDBRANCH   1  31
TORSDOF 5
ENDMDL
MODEL 9
REMARK VINA RESULT:      -7.5      8.843     12.072
REMARK  5 active torsions:
REMARK  status: ('A' for Active; 'I' for Inactive)
REMARK    1  A    between atoms: C_2  and  C_3 
REMARK       I    between atoms: C_2  and  N_33 
REMARK    2  A    between atoms: N_6  and  C_7 
REMARK    3  A    between atoms: N_11  and  C_12 
REMARK    4  A    between atoms: C_12  and  C_13 
REMARK    5  A    between atoms: C_13  and  N_14 
ROOT
HETATM    1  C   UNK N   1      40.330  33.853  45.759  0.00  0.00     0.126 A 
HETATM    2  N   UNK N   1      39.191  33.239  46.121  0.00  0.00    -0.292 N 
ATOM      3  HN  UNK N   1      38.988  32.891  47.057  1.00  0.00     0.187 HD
HETATM    4  N   UNK N   1      38.369  33.148  45.082  0.00  0.00    -0.284 N 
HETATM    5  C   UNK N   1      38.976  33.730  43.993  0.00  0.00     0.072 A 
HETATM    6  C   UNK N   1      40.239  34.182  44.414  0.00  0.00     0.019 A 
HETATM    7  C   UNK N   1      41.279  34.811  43.522  0.00  0.00     0.189 C 
HETATM    8  S   UNK N   1      41.245  33.839  42.026  0.00  0.00     0.180 S 
HETATM    9  O   UNK N   1      41.811  32.429  42.251  0.00  0.00    -0.222 OA
HETATM   10  O   UNK N   1      42.145  34.434  40.933  0.00  0.00    -0.222 OA
HETATM   11  C   UNK N   1      39.547  33.765  41.521  0.00  0.00     0.072 A 
HETATM   12  C   UNK N   1      39.214  33.748  40.163  0.00  0.00     0.024 A 
HETATM   13  C   UNK N   1      37.876  33.742  39.778  0.00  0.00     0.002 A 
HETATM   14  C   UNK N   1      36.875  33.768  40.746  0.00  0.00     0.001 A 
HETATM   15  C   UNK N   1      37.204  33.777  42.105  0.00  0.00     0.015 A 
HETATM   16  C   UNK N   1      38.546  33.757  42.529  0.00  0.00     0.014 A 
ENDROOT
BRANCH   4  17
HETATM   17  C   UNK N   1      37.162  32.302  45.233  0.00  0.00     0.137 C 
HETATM   18  C   UNK N   1      35.866  33.110  45.428  0.00  0.00     0.031 C 
HETATM   19  C   UNK N   1      34.662  32.172  45.413  0.00  0.00     0.032 C 
HETATM   20  C   UNK N   1      34.855  31.046  46.448  0.00  0.00     0.272 C 
HETATM   21  N   UNK N   1      36.098  30.268  46.210  0.00  0.00     0.092 N 
HETATM   22  C   UNK N   1      37.304  31.131  46.228  0.00  0.00     0.299 C 
BRANCH  21  23
HETATM   23  C   UNK N   1      36.028  29.364  45.035  0.00  0.00     0.302 C 
BRANCH  23  24
HETATM   24  C   UNK N   1      35.008  28.241  45.282  0.00  0.00     0.302 C 
BRANCH  24  25
HETATM   25  N   UNK N   1      35.622  27.084  45.971  0.00  0.00     0.094 N 
HETATM   26  C   UNK N   1      37.097  27.046  45.809  0.00  0.00     0.298 C 
HETATM   27  C   UNK N   1      37.841  27.172  47.151  0.00  0.00     0.198 C 
HETATM   28  O   UNK N   1      37.458  26.167  48.076  0.00  0.00    -0.388 OA
HETATM   29  C   UNK N   1      36.056  25.907  48.096  0.00  0.00     0.198 C 
HETATM   30  C   UNK N   1      35.202  26.967  47.383  0.00  0.00     0.298 C 
ENDBRANCH  24  25
ENDBRANCH  23  24
ENDBRANCH  21  23
ENDBRANCH   4  17
BRANCH   1  31
HETATM   31  C   UNK N   1      41.519  34.038  46.665  0.00  0.00     0.272 C 
HETATM   32  O   UNK N   1      41.448  34.907  47.521  0.00  0.00    -0.266 OA
HETATM   33  N   UNK N   1      42.686  33.306  46.566  0.00  0.00    -0.343 N 
HETATM   34  C   UNK N   1      42.850  32.252  45.557  0.00  0.00     0.152 C 
HETATM   35  C   UNK N   1      43.838  33.748  47.367  0.00  0.00     0.152 C 
HETATM   36  C   UNK N   1      44.143  31.451  45.731  0.00  0.00     0.187 C 
HETATM   37  O   UNK N   1      45.226  32.313  46.003  0.00  0.00    -0.388 OA
HETATM   38  C   UNK N   1      45.036  32.800  47.314  0.00  0.00     0.187 C 
ENDBRANCH   1  31
TORSDOF 5
ENDMDL
