MODEL 1
REMARK VINA RESULT:      -8.9      0.000      0.000
REMARK  3 active torsions:
REMARK  status: ('A' for Active; 'I' for Inactive)
REMARK    1  A    between atoms: C_2  and  C_3 
REMARK       I    between atoms: C_2  and  N_32 
REMARK    2  A    between atoms: N_6  and  C_7 
REMARK    3  A    between atoms: N_11  and  C_12 
ROOT
HETATM    1  C   UNK N   1      40.038  38.698  54.693  0.00  0.00     0.126 A 
HETATM    2  N   UNK N   1      40.205  38.551  53.366  0.00  0.00    -0.292 N 
ATOM      3  HN  UNK N   1      39.478  38.270  52.708  1.00  0.00     0.187 HD
HETATM    4  N   UNK N   1      41.461  38.829  53.047  0.00  0.00    -0.284 N 
HETATM    5  C   UNK N   1      42.158  39.115  54.182  0.00  0.00     0.074 A 
HETATM    6  C   UNK N   1      41.244  39.114  55.245  0.00  0.00     0.019 A 
HETATM    7  C   UNK N   1      41.500  39.501  56.681  0.00  0.00     0.191 C 
HETATM    8  S   UNK N   1      42.989  40.516  56.705  0.00  0.00     0.196 S 
HETATM    9  O   UNK N   1      42.618  41.990  56.480  0.00  0.00    -0.221 OA
HETATM   10  O   UNK N   1      43.644  40.550  58.094  0.00  0.00    -0.221 OA
HETATM   11  C   UNK N   1      44.139  40.026  55.462  0.00  0.00     0.141 A 
HETATM   12  N   UNK N   1      45.472  40.222  55.643  0.00  0.00    -0.356 N 
ATOM     13  HN  UNK N   1      45.796  40.721  56.472  1.00  0.00     0.166 HD
HETATM   14  C   UNK N   1      46.382  39.766  54.746  0.00  0.00     0.089 A 
HETATM   15  C   UNK N   1      45.959  39.055  53.625  0.00  0.00     0.018 A 
HETATM   16  C   UNK N   1      44.595  38.849  53.415  0.00  0.00     0.018 A 
HETATM   17  C   UNK N   1      43.646  39.363  54.324  0.00  0.00     0.031 A 
ENDROOT
BRANCH   4  18
HETATM   18  C   UNK N   1      41.880  38.920  51.639  0.00  0.00     0.137 C 
HETATM   19  C   UNK N   1      40.920  39.863  50.872  0.00  0.00     0.031 C 
HETATM   20  C   UNK N   1      40.887  39.560  49.367  0.00  0.00     0.032 C 
HETATM   21  C   UNK N   1      42.221  38.978  48.906  0.00  0.00     0.273 C 
HETATM   22  N   UNK N   1      42.509  37.667  49.574  0.00  0.00     0.097 N 
HETATM   23  C   UNK N   1      41.944  37.554  50.955  0.00  0.00     0.300 C 
BRANCH  22  24
HETATM   24  C   UNK N   1      42.201  36.475  48.727  0.00  0.00     0.246 C 
HETATM   25  C   UNK N   1      43.140  35.281  49.068  0.00  0.00     0.040 C 
HETATM   26  C   UNK N   1      42.479  33.921  48.823  0.00  0.00     0.028 C 
HETATM   27  C   UNK N   1      41.497  34.029  47.660  0.00  0.00     0.167 C 
HETATM   28  O   UNK N   1      40.421  34.926  47.934  0.00  0.00    -0.389 OA
HETATM   29  C   UNK N   1      40.730  35.984  48.844  0.00  0.00     0.203 C 
ENDBRANCH  22  24
ENDBRANCH   4  18
BRANCH   1  30
HETATM   30  C   UNK N   1      38.754  38.441  55.433  0.00  0.00     0.272 C 
HETATM   31  O   UNK N   1      38.630  37.359  55.990  0.00  0.00    -0.266 OA
HETATM   32  N   UNK N   1      37.704  39.341  55.482  0.00  0.00    -0.343 N 
HETATM   33  C   UNK N   1      36.448  38.894  56.104  0.00  0.00     0.152 C 
HETATM   34  C   UNK N   1      37.772  40.630  54.783  0.00  0.00     0.152 C 
HETATM   35  C   UNK N   1      35.365  39.974  56.165  0.00  0.00     0.187 C 
HETATM   36  O   UNK N   1      35.365  40.742  54.981  0.00  0.00    -0.388 OA
HETATM   37  C   UNK N   1      36.543  41.516  55.008  0.00  0.00     0.187 C 
ENDBRANCH   1  30
TORSDOF 3
ENDMDL
MODEL 2
REMARK VINA RESULT:      -8.2      1.250      2.060
REMARK  3 active torsions:
REMARK  status: ('A' for Active; 'I' for Inactive)
REMARK    1  A    between atoms: C_2  and  C_3 
REMARK       I    between atoms: C_2  and  N_32 
REMARK    2  A    between atoms: N_6  and  C_7 
REMARK    3  A    between atoms: N_11  and  C_12 
ROOT
HETATM    1  C   UNK N   1      39.716  38.836  54.831  0.00  0.00     0.126 A 
HETATM    2  N   UNK N   1      39.851  38.684  53.501  0.00  0.00    -0.292 N 
ATOM      3  HN  UNK N   1      39.102  38.434  52.857  1.00  0.00     0.187 HD
HETATM    4  N   UNK N   1      41.112  38.908  53.159  0.00  0.00    -0.284 N 
HETATM    5  C   UNK N   1      41.842  39.163  54.280  0.00  0.00     0.074 A 
HETATM    6  C   UNK N   1      40.948  39.200  55.360  0.00  0.00     0.019 A 
HETATM    7  C   UNK N   1      41.247  39.575  56.792  0.00  0.00     0.191 C 
HETATM    8  S   UNK N   1      42.779  40.525  56.788  0.00  0.00     0.196 S 
HETATM    9  O   UNK N   1      42.467  42.014  56.570  0.00  0.00    -0.221 OA
HETATM   10  O   UNK N   1      43.460  40.530  58.164  0.00  0.00    -0.221 OA
HETATM   11  C   UNK N   1      43.883  39.987  55.524  0.00  0.00     0.141 A 
HETATM   12  N   UNK N   1      45.227  40.125  55.680  0.00  0.00    -0.356 N 
ATOM     13  HN  UNK N   1      45.587  40.610  56.503  1.00  0.00     0.166 HD
HETATM   14  C   UNK N   1      46.099  39.632  54.766  0.00  0.00     0.089 A 
HETATM   15  C   UNK N   1      45.625  38.941  53.654  0.00  0.00     0.018 A 
HETATM   16  C   UNK N   1      44.251  38.793  53.468  0.00  0.00     0.018 A 
HETATM   17  C   UNK N   1      43.341  39.347  54.395  0.00  0.00     0.031 A 
ENDROOT
BRANCH   4  18
HETATM   18  C   UNK N   1      41.509  38.982  51.743  0.00  0.00     0.137 C 
HETATM   19  C   UNK N   1      40.459  39.802  50.953  0.00  0.00     0.031 C 
HETATM   20  C   UNK N   1      40.441  39.439  49.461  0.00  0.00     0.032 C 
HETATM   21  C   UNK N   1      41.819  38.964  49.006  0.00  0.00     0.273 C 
HETATM   22  N   UNK N   1      42.232  37.712  49.720  0.00  0.00     0.097 N 
HETATM   23  C   UNK N   1      41.692  37.602  51.111  0.00  0.00     0.300 C 
BRANCH  22  24
HETATM   24  C   UNK N   1      42.028  36.464  48.922  0.00  0.00     0.246 C 
HETATM   25  C   UNK N   1      43.226  35.486  49.086  0.00  0.00     0.040 C 
HETATM   26  C   UNK N   1      42.815  34.018  48.940  0.00  0.00     0.028 C 
HETATM   27  C   UNK N   1      41.651  33.906  47.960  0.00  0.00     0.167 C 
HETATM   28  O   UNK N   1      40.481  34.580  48.422  0.00  0.00    -0.389 OA
HETATM   29  C   UNK N   1      40.723  35.698  49.279  0.00  0.00     0.203 C 
ENDBRANCH  22  24
ENDBRANCH   4  18
BRANCH   1  30
HETATM   30  C   UNK N   1      38.436  38.635  55.594  0.00  0.00     0.272 C 
HETATM   31  O   UNK N   1      37.744  39.621  55.804  0.00  0.00    -0.266 OA
HETATM   32  N   UNK N   1      38.026  37.413  56.097  0.00  0.00    -0.343 N 
HETATM   33  C   UNK N   1      36.837  37.392  56.962  0.00  0.00     0.152 C 
HETATM   34  C   UNK N   1      38.845  36.206  55.928  0.00  0.00     0.152 C 
HETATM   35  C   UNK N   1      36.426  35.992  57.423  0.00  0.00     0.187 C 
HETATM   36  O   UNK N   1      37.565  35.216  57.725  0.00  0.00    -0.388 OA
HETATM   37  C   UNK N   1      38.198  34.939  56.495  0.00  0.00     0.187 C 
ENDBRANCH   1  30
TORSDOF 3
ENDMDL
MODEL 3
REMARK VINA RESULT:      -8.2      3.092      6.477
REMARK  3 active torsions:
REMARK  status: ('A' for Active; 'I' for Inactive)
REMARK    1  A    between atoms: C_2  and  C_3 
REMARK       I    between atoms: C_2  and  N_32 
REMARK    2  A    between atoms: N_6  and  C_7 
REMARK    3  A    between atoms: N_11  and  C_12 
ROOT
HETATM    1  C   UNK N   1      42.460  38.992  52.612  0.00  0.00     0.126 A 
HETATM    2  N   UNK N   1      41.153  38.865  52.324  0.00  0.00    -0.292 N 
ATOM      3  HN  UNK N   1      40.391  39.321  52.826  1.00  0.00     0.187 HD
HETATM    4  N   UNK N   1      41.007  38.055  51.284  0.00  0.00    -0.284 N 
HETATM    5  C   UNK N   1      42.230  37.592  50.903  0.00  0.00     0.074 A 
HETATM    6  C   UNK N   1      43.188  38.244  51.693  0.00  0.00     0.019 A 
HETATM    7  C   UNK N   1      44.690  38.171  51.568  0.00  0.00     0.191 C 
HETATM    8  S   UNK N   1      45.061  37.595  49.901  0.00  0.00     0.196 S 
HETATM    9  O   UNK N   1      45.141  38.793  48.942  0.00  0.00    -0.221 OA
HETATM   10  O   UNK N   1      46.472  36.996  49.796  0.00  0.00    -0.221 OA
HETATM   11  C   UNK N   1      43.839  36.472  49.306  0.00  0.00     0.141 A 
HETATM   12  N   UNK N   1      44.167  35.516  48.397  0.00  0.00    -0.356 N 
ATOM     13  HN  UNK N   1      45.110  35.500  48.007  1.00  0.00     0.166 HD
HETATM   14  C   UNK N   1      43.269  34.582  47.998  0.00  0.00     0.089 A 
HETATM   15  C   UNK N   1      41.988  34.570  48.544  0.00  0.00     0.018 A 
HETATM   16  C   UNK N   1      41.625  35.547  49.472  0.00  0.00     0.018 A 
HETATM   17  C   UNK N   1      42.545  36.547  49.853  0.00  0.00     0.031 A 
ENDROOT
BRANCH   4  18
HETATM   18  C   UNK N   1      39.694  37.875  50.645  0.00  0.00     0.137 C 
HETATM   19  C   UNK N   1      39.558  38.858  49.455  0.00  0.00     0.031 C 
HETATM   20  C   UNK N   1      38.091  39.175  49.128  0.00  0.00     0.032 C 
HETATM   21  C   UNK N   1      37.190  38.001  49.502  0.00  0.00     0.273 C 
HETATM   22  N   UNK N   1      37.224  37.730  50.976  0.00  0.00     0.097 N 
HETATM   23  C   UNK N   1      38.532  38.059  51.623  0.00  0.00     0.300 C 
BRANCH  22  24
HETATM   24  C   UNK N   1      36.056  38.290  51.722  0.00  0.00     0.246 C 
HETATM   25  C   UNK N   1      36.485  38.837  53.114  0.00  0.00     0.040 C 
HETATM   26  C   UNK N   1      35.605  39.997  53.590  0.00  0.00     0.028 C 
HETATM   27  C   UNK N   1      34.186  39.816  53.059  0.00  0.00     0.167 C 
HETATM   28  O   UNK N   1      34.127  39.859  51.633  0.00  0.00    -0.389 OA
HETATM   29  C   UNK N   1      35.312  39.424  50.964  0.00  0.00     0.203 C 
ENDBRANCH  22  24
ENDBRANCH   4  18
BRANCH   1  30
HETATM   30  C   UNK N   1      43.017  39.808  53.746  0.00  0.00     0.272 C 
HETATM   31  O   UNK N   1      44.113  40.326  53.583  0.00  0.00    -0.266 OA
HETATM   32  N   UNK N   1      42.378  39.967  54.962  0.00  0.00    -0.343 N 
HETATM   33  C   UNK N   1      43.110  40.655  56.036  0.00  0.00     0.152 C 
HETATM   34  C   UNK N   1      41.089  39.320  55.237  0.00  0.00     0.152 C 
HETATM   35  C   UNK N   1      42.304  40.836  57.324  0.00  0.00     0.187 C 
HETATM   36  O   UNK N   1      41.526  39.688  57.586  0.00  0.00    -0.388 OA
HETATM   37  C   UNK N   1      40.507  39.665  56.611  0.00  0.00     0.187 C 
ENDBRANCH   1  30
TORSDOF 3
ENDMDL
MODEL 4
REMARK VINA RESULT:      -8.1      3.448      5.433
REMARK  3 active torsions:
REMARK  status: ('A' for Active; 'I' for Inactive)
REMARK    1  A    between atoms: C_2  and  C_3 
REMARK       I    between atoms: C_2  and  N_32 
REMARK    2  A    between atoms: N_6  and  C_7 
REMARK    3  A    between atoms: N_11  and  C_12 
ROOT
HETATM    1  C   UNK N   1      39.501  38.866  53.338  0.00  0.00     0.126 A 
HETATM    2  N   UNK N   1      40.842  38.762  53.345  0.00  0.00    -0.292 N 
ATOM      3  HN  UNK N   1      41.401  38.290  52.635  1.00  0.00     0.187 HD
HETATM    4  N   UNK N   1      41.325  39.369  54.420  0.00  0.00    -0.284 N 
HETATM    5  C   UNK N   1      40.291  39.840  55.170  0.00  0.00     0.074 A 
HETATM    6  C   UNK N   1      39.110  39.598  54.454  0.00  0.00     0.019 A 
HETATM    7  C   UNK N   1      37.712  40.049  54.800  0.00  0.00     0.191 C 
HETATM    8  S   UNK N   1      37.864  41.430  55.948  0.00  0.00     0.196 S 
HETATM    9  O   UNK N   1      37.985  42.747  55.164  0.00  0.00    -0.221 OA
HETATM   10  O   UNK N   1      36.580  41.649  56.762  0.00  0.00    -0.221 OA
HETATM   11  C   UNK N   1      39.271  41.262  56.996  0.00  0.00     0.141 A 
HETATM   12  N   UNK N   1      39.273  41.814  58.239  0.00  0.00    -0.356 N 
ATOM     13  HN  UNK N   1      38.481  42.388  58.532  1.00  0.00     0.166 HD
HETATM   14  C   UNK N   1      40.303  41.616  59.098  0.00  0.00     0.089 A 
HETATM   15  C   UNK N   1      41.376  40.810  58.726  0.00  0.00     0.018 A 
HETATM   16  C   UNK N   1      41.400  40.240  57.452  0.00  0.00     0.018 A 
HETATM   17  C   UNK N   1      40.351  40.483  56.541  0.00  0.00     0.031 A 
ENDROOT
BRANCH   4  18
HETATM   18  C   UNK N   1      42.774  39.561  54.592  0.00  0.00     0.137 C 
HETATM   19  C   UNK N   1      43.143  41.032  54.280  0.00  0.00     0.031 C 
HETATM   20  C   UNK N   1      44.608  41.185  53.847  0.00  0.00     0.032 C 
HETATM   21  C   UNK N   1      45.474  40.100  54.484  0.00  0.00     0.273 C 
HETATM   22  N   UNK N   1      45.061  38.731  54.032  0.00  0.00     0.097 N 
HETATM   23  C   UNK N   1      43.601  38.609  53.727  0.00  0.00     0.300 C 
BRANCH  22  24
HETATM   24  C   UNK N   1      45.924  38.164  52.951  0.00  0.00     0.246 C 
HETATM   25  C   UNK N   1      45.167  38.112  51.593  0.00  0.00     0.040 C 
HETATM   26  C   UNK N   1      46.104  38.249  50.389  0.00  0.00     0.028 C 
HETATM   27  C   UNK N   1      47.461  37.634  50.722  0.00  0.00     0.167 C 
HETATM   28  O   UNK N   1      48.120  38.312  51.791  0.00  0.00    -0.389 OA
HETATM   29  C   UNK N   1      47.253  38.941  52.737  0.00  0.00     0.203 C 
ENDBRANCH  22  24
ENDBRANCH   4  18
BRANCH   1  30
HETATM   30  C   UNK N   1      38.598  38.276  52.291  0.00  0.00     0.272 C 
HETATM   31  O   UNK N   1      38.421  38.924  51.268  0.00  0.00    -0.266 OA
HETATM   32  N   UNK N   1      37.935  37.071  52.440  0.00  0.00    -0.343 N 
HETATM   33  C   UNK N   1      36.958  36.694  51.407  0.00  0.00     0.152 C 
HETATM   34  C   UNK N   1      38.061  36.279  53.669  0.00  0.00     0.152 C 
HETATM   35  C   UNK N   1      36.318  35.321  51.625  0.00  0.00     0.187 C 
HETATM   36  O   UNK N   1      36.054  35.111  52.995  0.00  0.00    -0.388 OA
HETATM   37  C   UNK N   1      37.306  34.947  53.623  0.00  0.00     0.187 C 
ENDBRANCH   1  30
TORSDOF 3
ENDMDL
MODEL 5
REMARK VINA RESULT:      -8.0      3.908      9.269
REMARK  3 active torsions:
REMARK  status: ('A' for Active; 'I' for Inactive)
REMARK    1  A    between atoms: C_2  and  C_3 
REMARK       I    between atoms: C_2  and  N_32 
REMARK    2  A    between atoms: N_6  and  C_7 
REMARK    3  A    between atoms: N_11  and  C_12 
ROOT
HETATM    1  C   UNK N   1      40.680  35.164  48.297  0.00  0.00     0.126 A 
HETATM    2  N   UNK N   1      41.158  36.202  49.007  0.00  0.00    -0.292 N 
ATOM      3  HN  UNK N   1      42.057  36.658  48.852  1.00  0.00     0.187 HD
HETATM    4  N   UNK N   1      40.279  36.539  49.940  0.00  0.00    -0.284 N 
HETATM    5  C   UNK N   1      39.221  35.683  49.888  0.00  0.00     0.074 A 
HETATM    6  C   UNK N   1      39.420  34.838  48.786  0.00  0.00     0.019 A 
HETATM    7  C   UNK N   1      38.468  33.808  48.230  0.00  0.00     0.191 C 
HETATM    8  S   UNK N   1      36.819  34.227  48.824  0.00  0.00     0.196 S 
HETATM    9  O   UNK N   1      36.153  35.216  47.855  0.00  0.00    -0.221 OA
HETATM   10  O   UNK N   1      35.864  33.025  48.775  0.00  0.00    -0.221 OA
HETATM   11  C   UNK N   1      36.863  34.950  50.431  0.00  0.00     0.141 A 
HETATM   12  N   UNK N   1      35.805  34.815  51.275  0.00  0.00    -0.356 N 
ATOM     13  HN  UNK N   1      34.957  34.354  50.944  1.00  0.00     0.166 HD
HETATM   14  C   UNK N   1      35.854  35.278  52.549  0.00  0.00     0.089 A 
HETATM   15  C   UNK N   1      37.014  35.881  53.026  0.00  0.00     0.018 A 
HETATM   16  C   UNK N   1      38.110  36.038  52.176  0.00  0.00     0.018 A 
HETATM   17  C   UNK N   1      38.043  35.598  50.837  0.00  0.00     0.031 A 
ENDROOT
BRANCH   4  18
HETATM   18  C   UNK N   1      40.465  37.754  50.749  0.00  0.00     0.137 C 
HETATM   19  C   UNK N   1      40.714  38.965  49.816  0.00  0.00     0.031 C 
HETATM   20  C   UNK N   1      41.491  40.089  50.518  0.00  0.00     0.032 C 
HETATM   21  C   UNK N   1      41.207  40.085  52.018  0.00  0.00     0.273 C 
HETATM   22  N   UNK N   1      41.672  38.812  52.661  0.00  0.00     0.097 N 
HETATM   23  C   UNK N   1      41.603  37.619  51.762  0.00  0.00     0.300 C 
BRANCH  22  24
HETATM   24  C   UNK N   1      42.988  38.932  53.359  0.00  0.00     0.246 C 
HETATM   25  C   UNK N   1      44.074  38.057  52.671  0.00  0.00     0.040 C 
HETATM   26  C   UNK N   1      45.484  38.635  52.825  0.00  0.00     0.028 C 
HETATM   27  C   UNK N   1      45.592  39.377  54.154  0.00  0.00     0.167 C 
HETATM   28  O   UNK N   1      44.715  40.500  54.226  0.00  0.00    -0.389 OA
HETATM   29  C   UNK N   1      43.522  40.389  53.447  0.00  0.00     0.203 C 
ENDBRANCH  22  24
ENDBRANCH   4  18
BRANCH   1  30
HETATM   30  C   UNK N   1      41.408  34.484  47.171  0.00  0.00     0.272 C 
HETATM   31  O   UNK N   1      41.056  34.750  46.030  0.00  0.00    -0.266 OA
HETATM   32  N   UNK N   1      42.416  33.555  47.358  0.00  0.00    -0.343 N 
HETATM   33  C   UNK N   1      42.928  32.850  46.173  0.00  0.00     0.152 C 
HETATM   34  C   UNK N   1      42.840  33.152  48.705  0.00  0.00     0.152 C 
HETATM   35  C   UNK N   1      44.079  31.887  46.470  0.00  0.00     0.187 C 
HETATM   36  O   UNK N   1      43.856  31.208  47.687  0.00  0.00    -0.388 OA
HETATM   37  C   UNK N   1      44.011  32.165  48.712  0.00  0.00     0.187 C 
ENDBRANCH   1  30
TORSDOF 3
ENDMDL
MODEL 6
REMARK VINA RESULT:      -7.8      3.105      7.045
REMARK  3 active torsions:
REMARK  status: ('A' for Active; 'I' for Inactive)
REMARK    1  A    between atoms: C_2  and  C_3 
REMARK       I    between atoms: C_2  and  N_32 
REMARK    2  A    between atoms: N_6  and  C_7 
REMARK    3  A    between atoms: N_11  and  C_12 
ROOT
HETATM    1  C   UNK N   1      40.296  38.405  50.876  0.00  0.00     0.126 A 
HETATM    2  N   UNK N   1      40.867  39.188  51.808  0.00  0.00    -0.292 N 
ATOM      3  HN  UNK N   1      40.365  39.788  52.462  1.00  0.00     0.187 HD
HETATM    4  N   UNK N   1      42.185  39.058  51.744  0.00  0.00    -0.284 N 
HETATM    5  C   UNK N   1      42.503  38.217  50.722  0.00  0.00     0.074 A 
HETATM    6  C   UNK N   1      41.300  37.722  50.198  0.00  0.00     0.019 A 
HETATM    7  C   UNK N   1      41.122  36.659  49.141  0.00  0.00     0.191 C 
HETATM    8  S   UNK N   1      42.654  35.712  49.072  0.00  0.00     0.196 S 
HETATM    9  O   UNK N   1      42.602  34.563  50.091  0.00  0.00    -0.221 OA
HETATM   10  O   UNK N   1      42.811  34.963  47.740  0.00  0.00    -0.221 OA
HETATM   11  C   UNK N   1      44.063  36.713  49.419  0.00  0.00     0.141 A 
HETATM   12  N   UNK N   1      45.275  36.402  48.887  0.00  0.00    -0.356 N 
ATOM     13  HN  UNK N   1      45.378  35.543  48.346  1.00  0.00     0.166 HD
HETATM   14  C   UNK N   1      46.351  37.210  49.061  0.00  0.00     0.089 A 
HETATM   15  C   UNK N   1      46.220  38.400  49.770  0.00  0.00     0.018 A 
HETATM   16  C   UNK N   1      44.988  38.737  50.331  0.00  0.00     0.018 A 
HETATM   17  C   UNK N   1      43.880  37.874  50.191  0.00  0.00     0.031 A 
ENDROOT
BRANCH   4  18
HETATM   18  C   UNK N   1      43.053  39.667  52.765  0.00  0.00     0.137 C 
HETATM   19  C   UNK N   1      44.141  38.651  53.193  0.00  0.00     0.031 C 
HETATM   20  C   UNK N   1      44.678  38.935  54.604  0.00  0.00     0.032 C 
HETATM   21  C   UNK N   1      44.586  40.425  54.925  0.00  0.00     0.273 C 
HETATM   22  N   UNK N   1      43.164  40.899  54.933  0.00  0.00     0.097 N 
HETATM   23  C   UNK N   1      42.274  40.159  53.985  0.00  0.00     0.300 C 
BRANCH  22  24
HETATM   24  C   UNK N   1      42.573  41.019  56.301  0.00  0.00     0.246 C 
HETATM   25  C   UNK N   1      41.233  40.236  56.409  0.00  0.00     0.040 C 
HETATM   26  C   UNK N   1      40.965  39.716  57.825  0.00  0.00     0.028 C 
HETATM   27  C   UNK N   1      41.565  40.678  58.847  0.00  0.00     0.167 C 
HETATM   28  O   UNK N   1      42.985  40.770  58.742  0.00  0.00    -0.389 OA
HETATM   29  C   UNK N   1      43.515  40.529  57.437  0.00  0.00     0.203 C 
ENDBRANCH  22  24
ENDBRANCH   4  18
BRANCH   1  30
HETATM   30  C   UNK N   1      38.816  38.306  50.623  0.00  0.00     0.272 C 
HETATM   31  O   UNK N   1      38.328  39.090  49.820  0.00  0.00    -0.266 OA
HETATM   32  N   UNK N   1      37.985  37.412  51.272  0.00  0.00    -0.343 N 
HETATM   33  C   UNK N   1      36.537  37.535  51.047  0.00  0.00     0.152 C 
HETATM   34  C   UNK N   1      38.504  36.488  52.288  0.00  0.00     0.152 C 
HETATM   35  C   UNK N   1      35.702  36.468  51.759  0.00  0.00     0.187 C 
HETATM   36  O   UNK N   1      36.224  36.208  53.044  0.00  0.00    -0.388 OA
HETATM   37  C   UNK N   1      37.447  35.532  52.848  0.00  0.00     0.187 C 
ENDBRANCH   1  30
TORSDOF 3
ENDMDL
MODEL 7
REMARK VINA RESULT:      -7.7      2.871      3.614
REMARK  3 active torsions:
REMARK  status: ('A' for Active; 'I' for Inactive)
REMARK    1  A    between atoms: C_2  and  C_3 
REMARK       I    between atoms: C_2  and  N_32 
REMARK    2  A    between atoms: N_6  and  C_7 
REMARK    3  A    between atoms: N_11  and  C_12 
ROOT
HETATM    1  C   UNK N   1      38.140  37.871  52.189  0.00  0.00     0.126 A 
HETATM    2  N   UNK N   1      39.068  37.504  51.287  0.00  0.00    -0.292 N 
ATOM      3  HN  UNK N   1      38.895  36.929  50.463  1.00  0.00     0.187 HD
HETATM    4  N   UNK N   1      40.244  38.006  51.637  0.00  0.00    -0.284 N 
HETATM    5  C   UNK N   1      40.113  38.675  52.815  0.00  0.00     0.074 A 
HETATM    6  C   UNK N   1      38.751  38.669  53.150  0.00  0.00     0.019 A 
HETATM    7  C   UNK N   1      38.079  39.388  54.293  0.00  0.00     0.191 C 
HETATM    8  S   UNK N   1      39.182  40.715  54.813  0.00  0.00     0.196 S 
HETATM    9  O   UNK N   1      38.901  41.980  53.986  0.00  0.00    -0.221 OA
HETATM   10  O   UNK N   1      38.886  41.187  56.245  0.00  0.00    -0.221 OA
HETATM   11  C   UNK N   1      40.878  40.275  54.617  0.00  0.00     0.141 A 
HETATM   12  N   UNK N   1      41.827  40.819  55.425  0.00  0.00    -0.356 N 
ATOM     13  HN  UNK N   1      41.559  41.539  56.096  1.00  0.00     0.166 HD
HETATM   14  C   UNK N   1      43.123  40.424  55.357  0.00  0.00     0.089 A 
HETATM   15  C   UNK N   1      43.499  39.421  54.468  0.00  0.00     0.018 A 
HETATM   16  C   UNK N   1      42.544  38.854  53.624  0.00  0.00     0.018 A 
HETATM   17  C   UNK N   1      41.205  39.297  53.661  0.00  0.00     0.031 A 
ENDROOT
BRANCH   4  18
HETATM   18  C   UNK N   1      41.405  37.908  50.737  0.00  0.00     0.137 C 
HETATM   19  C   UNK N   1      41.443  39.143  49.803  0.00  0.00     0.031 C 
HETATM   20  C   UNK N   1      42.195  38.859  48.494  0.00  0.00     0.032 C 
HETATM   21  C   UNK N   1      43.268  37.795  48.710  0.00  0.00     0.273 C 
HETATM   22  N   UNK N   1      42.666  36.484  49.120  0.00  0.00     0.097 N 
HETATM   23  C   UNK N   1      41.406  36.618  49.915  0.00  0.00     0.300 C 
BRANCH  22  24
HETATM   24  C   UNK N   1      42.541  35.499  48.004  0.00  0.00     0.246 C 
HETATM   25  C   UNK N   1      43.655  34.415  48.078  0.00  0.00     0.040 C 
HETATM   26  C   UNK N   1      43.211  33.070  47.495  0.00  0.00     0.028 C 
HETATM   27  C   UNK N   1      42.216  33.305  46.361  0.00  0.00     0.167 C 
HETATM   28  O   UNK N   1      41.017  33.936  46.809  0.00  0.00    -0.389 OA
HETATM   29  C   UNK N   1      41.164  34.777  47.954  0.00  0.00     0.203 C 
ENDBRANCH  22  24
ENDBRANCH   4  18
BRANCH   1  30
HETATM   30  C   UNK N   1      36.692  37.468  52.146  0.00  0.00     0.272 C 
HETATM   31  O   UNK N   1      35.897  38.271  51.676  0.00  0.00    -0.266 OA
HETATM   32  N   UNK N   1      36.214  36.268  52.640  0.00  0.00    -0.343 N 
HETATM   33  C   UNK N   1      34.757  36.075  52.680  0.00  0.00     0.152 C 
HETATM   34  C   UNK N   1      37.112  35.292  53.270  0.00  0.00     0.152 C 
HETATM   35  C   UNK N   1      34.324  34.697  53.187  0.00  0.00     0.187 C 
HETATM   36  O   UNK N   1      35.148  34.282  54.255  0.00  0.00    -0.388 OA
HETATM   37  C   UNK N   1      36.412  33.998  53.696  0.00  0.00     0.187 C 
ENDBRANCH   1  30
TORSDOF 3
ENDMDL
MODEL 8
REMARK VINA RESULT:      -7.6      3.278      7.365
REMARK  3 active torsions:
REMARK  status: ('A' for Active; 'I' for Inactive)
REMARK    1  A    between atoms: C_2  and  C_3 
REMARK       I    between atoms: C_2  and  N_32 
REMARK    2  A    between atoms: N_6  and  C_7 
REMARK    3  A    between atoms: N_11  and  C_12 
ROOT
HETATM    1  C   UNK N   1      40.129  38.778  51.839  0.00  0.00     0.126 A 
HETATM    2  N   UNK N   1      39.789  39.202  53.069  0.00  0.00    -0.292 N 
ATOM      3  HN  UNK N   1      38.838  39.388  53.387  1.00  0.00     0.187 HD
HETATM    4  N   UNK N   1      40.883  39.341  53.805  0.00  0.00    -0.284 N 
HETATM    5  C   UNK N   1      41.974  39.056  53.042  0.00  0.00     0.074 A 
HETATM    6  C   UNK N   1      41.509  38.614  51.795  0.00  0.00     0.019 A 
HETATM    7  C   UNK N   1      42.323  38.059  50.652  0.00  0.00     0.191 C 
HETATM    8  S   UNK N   1      43.896  37.504  51.334  0.00  0.00     0.196 S 
HETATM    9  O   UNK N   1      43.770  36.051  51.817  0.00  0.00    -0.221 OA
HETATM   10  O   UNK N   1      44.988  37.400  50.259  0.00  0.00    -0.221 OA
HETATM   11  C   UNK N   1      44.417  38.508  52.686  0.00  0.00     0.141 A 
HETATM   12  N   UNK N   1      45.740  38.655  52.964  0.00  0.00    -0.356 N 
ATOM     13  HN  UNK N   1      46.425  38.122  52.428  1.00  0.00     0.166 HD
HETATM   14  C   UNK N   1      46.168  39.497  53.937  0.00  0.00     0.089 A 
HETATM   15  C   UNK N   1      45.248  40.255  54.656  0.00  0.00     0.018 A 
HETATM   16  C   UNK N   1      43.885  40.115  54.395  0.00  0.00     0.018 A 
HETATM   17  C   UNK N   1      43.436  39.204  53.414  0.00  0.00     0.031 A 
ENDROOT
BRANCH   4  18
HETATM   18  C   UNK N   1      40.792  39.626  55.246  0.00  0.00     0.137 C 
HETATM   19  C   UNK N   1      40.405  38.333  56.007  0.00  0.00     0.031 C 
HETATM   20  C   UNK N   1      39.716  38.631  57.347  0.00  0.00     0.032 C 
HETATM   21  C   UNK N   1      40.199  39.962  57.916  0.00  0.00     0.273 C 
HETATM   22  N   UNK N   1      39.841  41.107  57.016  0.00  0.00     0.097 N 
HETATM   23  C   UNK N   1      39.802  40.747  55.564  0.00  0.00     0.300 C 
BRANCH  22  24
HETATM   24  C   UNK N   1      38.629  41.865  57.453  0.00  0.00     0.246 C 
HETATM   25  C   UNK N   1      39.004  43.010  58.438  0.00  0.00     0.040 C 
HETATM   26  C   UNK N   1      38.041  44.199  58.357  0.00  0.00     0.028 C 
HETATM   27  C   UNK N   1      36.644  43.703  57.996  0.00  0.00     0.167 C 
HETATM   28  O   UNK N   1      36.597  43.092  56.707  0.00  0.00    -0.389 OA
HETATM   29  C   UNK N   1      37.816  42.481  56.280  0.00  0.00     0.203 C 
ENDBRANCH  22  24
ENDBRANCH   4  18
BRANCH   1  30
HETATM   30  C   UNK N   1      39.161  38.534  50.714  0.00  0.00     0.272 C 
HETATM   31  O   UNK N   1      38.959  39.455  49.935  0.00  0.00    -0.266 OA
HETATM   32  N   UNK N   1      38.468  37.349  50.541  0.00  0.00    -0.343 N 
HETATM   33  C   UNK N   1      37.435  37.307  49.496  0.00  0.00     0.152 C 
HETATM   34  C   UNK N   1      38.625  36.231  51.479  0.00  0.00     0.152 C 
HETATM   35  C   UNK N   1      36.763  35.940  49.339  0.00  0.00     0.187 C 
HETATM   36  O   UNK N   1      36.553  35.345  50.601  0.00  0.00    -0.388 OA
HETATM   37  C   UNK N   1      37.827  34.983  51.088  0.00  0.00     0.187 C 
ENDBRANCH   1  30
TORSDOF 3
ENDMDL
MODEL 9
REMARK VINA RESULT:      -7.2      5.452     10.135
REMARK  3 active torsions:
REMARK  status: ('A' for Active; 'I' for Inactive)
REMARK    1  A    between atoms: C_2  and  C_3 
REMARK       I    between atoms: C_2  and  N_32 
REMARK    2  A    between atoms: N_6  and  C_7 
REMARK    3  A    between atoms: N_11  and  C_12 
ROOT
HETATM    1  C   UNK N   1      39.150  33.350  46.176  0.00  0.00     0.126 A 
HETATM    2  N   UNK N   1      38.433  33.734  47.248  0.00  0.00    -0.292 N 
ATOM      3  HN  UNK N   1      37.427  33.607  47.360  1.00  0.00     0.187 HD
HETATM    4  N   UNK N   1      39.237  34.301  48.135  0.00  0.00    -0.284 N 
HETATM    5  C   UNK N   1      40.501  34.346  47.630  0.00  0.00     0.074 A 
HETATM    6  C   UNK N   1      40.485  33.668  46.403  0.00  0.00     0.019 A 
HETATM    7  C   UNK N   1      41.661  33.332  45.520  0.00  0.00     0.191 C 
HETATM    8  S   UNK N   1      43.141  33.411  46.546  0.00  0.00     0.196 S 
HETATM    9  O   UNK N   1      43.384  32.049  47.215  0.00  0.00    -0.221 OA
HETATM   10  O   UNK N   1      44.416  33.598  45.710  0.00  0.00    -0.221 OA
HETATM   11  C   UNK N   1      43.006  34.642  47.800  0.00  0.00     0.141 A 
HETATM   12  N   UNK N   1      44.119  35.258  48.282  0.00  0.00    -0.356 N 
ATOM     13  HN  UNK N   1      45.038  34.950  47.963  1.00  0.00     0.166 HD
HETATM   14  C   UNK N   1      44.033  36.275  49.175  0.00  0.00     0.089 A 
HETATM   15  C   UNK N   1      42.786  36.728  49.596  0.00  0.00     0.018 A 
HETATM   16  C   UNK N   1      41.630  36.106  49.122  0.00  0.00     0.018 A 
HETATM   17  C   UNK N   1      41.720  35.018  48.228  0.00  0.00     0.031 A 
ENDROOT
BRANCH   4  18
HETATM   18  C   UNK N   1      38.748  34.658  49.477  0.00  0.00     0.137 C 
HETATM   19  C   UNK N   1      37.798  33.549  49.994  0.00  0.00     0.031 C 
HETATM   20  C   UNK N   1      36.807  34.075  51.042  0.00  0.00     0.032 C 
HETATM   21  C   UNK N   1      37.408  35.249  51.811  0.00  0.00     0.273 C 
HETATM   22  N   UNK N   1      37.692  36.411  50.906  0.00  0.00     0.097 N 
HETATM   23  C   UNK N   1      38.048  36.017  49.508  0.00  0.00     0.300 C 
BRANCH  22  24
HETATM   24  C   UNK N   1      36.654  37.485  50.956  0.00  0.00     0.246 C 
HETATM   25  C   UNK N   1      36.342  37.902  52.422  0.00  0.00     0.040 C 
HETATM   26  C   UNK N   1      35.903  39.365  52.540  0.00  0.00     0.028 C 
HETATM   27  C   UNK N   1      35.156  39.780  51.275  0.00  0.00     0.167 C 
HETATM   28  O   UNK N   1      35.980  39.727  50.111  0.00  0.00    -0.389 OA
HETATM   29  C   UNK N   1      37.035  38.764  50.158  0.00  0.00     0.203 C 
ENDBRANCH  22  24
ENDBRANCH   4  18
BRANCH   1  30
HETATM   30  C   UNK N   1      38.581  32.695  44.948  0.00  0.00     0.272 C 
HETATM   31  O   UNK N   1      38.251  31.520  45.038  0.00  0.00    -0.266 OA
HETATM   32  N   UNK N   1      38.449  33.333  43.729  0.00  0.00    -0.343 N 
HETATM   33  C   UNK N   1      38.029  32.525  42.574  0.00  0.00     0.152 C 
HETATM   34  C   UNK N   1      38.884  34.723  43.545  0.00  0.00     0.152 C 
HETATM   35  C   UNK N   1      37.854  33.327  41.282  0.00  0.00     0.187 C 
HETATM   36  O   UNK N   1      38.868  34.302  41.165  0.00  0.00    -0.388 OA
HETATM   37  C   UNK N   1      38.598  35.278  42.147  0.00  0.00     0.187 C 
ENDBRANCH   1  30
TORSDOF 3
ENDMDL
