MODEL 1
REMARK VINA RESULT:      -9.3      0.000      0.000
REMARK  3 active torsions:
REMARK  status: ('A' for Active; 'I' for Inactive)
REMARK    1  A    between atoms: C_2  and  C_3 
REMARK       I    between atoms: C_2  and  N_31 
REMARK    2  A    between atoms: N_6  and  C_7 
REMARK    3  A    between atoms: N_11  and  C_12 
ROOT
HETATM    1  C   UNK N   1      39.079  34.968  49.383  0.00  0.00     0.126 A 
HETATM    2  N   UNK N   1      40.072  34.299  48.777  0.00  0.00    -0.292 N 
ATOM      3  HN  UNK N   1      39.953  33.466  48.199  1.00  0.00     0.187 HD
HETATM    4  N   UNK N   1      41.228  34.884  49.042  0.00  0.00    -0.284 N 
HETATM    5  C   UNK N   1      41.012  35.946  49.870  0.00  0.00     0.072 A 
HETATM    6  C   UNK N   1      39.624  36.036  50.082  0.00  0.00     0.019 A 
HETATM    7  C   UNK N   1      38.871  37.073  50.870  0.00  0.00     0.189 C 
HETATM    8  S   UNK N   1      39.923  38.533  50.947  0.00  0.00     0.180 S 
HETATM    9  O   UNK N   1      39.520  39.465  52.098  0.00  0.00    -0.222 OA
HETATM   10  O   UNK N   1      39.680  39.415  49.711  0.00  0.00    -0.222 OA
HETATM   11  C   UNK N   1      41.641  38.114  51.021  0.00  0.00     0.072 A 
HETATM   12  C   UNK N   1      42.563  38.983  51.616  0.00  0.00     0.024 A 
HETATM   13  C   UNK N   1      43.901  38.612  51.726  0.00  0.00     0.002 A 
HETATM   14  C   UNK N   1      44.317  37.368  51.257  0.00  0.00     0.001 A 
HETATM   15  C   UNK N   1      43.403  36.499  50.654  0.00  0.00     0.015 A 
HETATM   16  C   UNK N   1      42.046  36.866  50.498  0.00  0.00     0.014 A 
ENDROOT
BRANCH   4  17
HETATM   17  C   UNK N   1      42.454  34.416  48.384  0.00  0.00     0.126 C 
HETATM   18  C   UNK N   1      42.948  33.093  49.011  0.00  0.00     0.030 C 
HETATM   19  C   UNK N   1      43.834  32.275  48.050  0.00  0.00     0.022 C 
HETATM   20  C   UNK N   1      44.507  33.165  46.998  0.00  0.00     0.117 C 
HETATM   21  N   UNK N   1      43.500  33.916  46.189  0.00  0.00    -0.404 N 
HETATM   22  C   UNK N   1      42.223  34.224  46.880  0.00  0.00     0.144 C 
BRANCH  21  23
HETATM   23  C   UNK N   1      43.282  33.473  44.787  0.00  0.00     0.107 C 
HETATM   24  C   UNK N   1      43.282  31.924  44.701  0.00  0.00     0.028 C 
HETATM   25  C   UNK N   1      42.560  31.500  43.427  0.00  0.00     0.032 C 
HETATM   26  C   UNK N   1      41.070  31.919  43.558  0.00  0.00     0.270 C 
HETATM   27  N   UNK N   1      40.877  33.221  44.242  0.00  0.00     0.085 N 
HETATM   28  C   UNK N   1      42.036  34.100  44.091  0.00  0.00     0.294 C 
HETATM   29  H   UNK N   1      40.011  33.681  43.877  0.00  0.00     0.315 HD
ENDBRANCH  21  23
ENDBRANCH   4  17
BRANCH   1  30
HETATM   30  C   UNK N   1      37.662  34.507  49.345  0.00  0.00     0.272 C 
HETATM   31  O   UNK N   1      37.060  34.593  48.283  0.00  0.00    -0.266 OA
HETATM   32  N   UNK N   1      36.993  34.097  50.482  0.00  0.00    -0.343 N 
HETATM   33  C   UNK N   1      37.677  33.685  51.704  0.00  0.00     0.152 C 
HETATM   34  C   UNK N   1      35.539  34.004  50.515  0.00  0.00     0.152 C 
HETATM   35  C   UNK N   1      37.155  32.288  52.078  0.00  0.00     0.187 C 
HETATM   36  O   UNK N   1      35.747  32.309  52.237  0.00  0.00    -0.388 OA
HETATM   37  C   UNK N   1      35.130  32.608  50.995  0.00  0.00     0.187 C 
ENDBRANCH   1  30
TORSDOF 3
ENDMDL
MODEL 2
REMARK VINA RESULT:      -8.6      1.702      2.353
REMARK  3 active torsions:
REMARK  status: ('A' for Active; 'I' for Inactive)
REMARK    1  A    between atoms: C_2  and  C_3 
REMARK       I    between atoms: C_2  and  N_31 
REMARK    2  A    between atoms: N_6  and  C_7 
REMARK    3  A    between atoms: N_11  and  C_12 
ROOT
HETATM    1  C   UNK N   1      38.742  34.605  48.796  0.00  0.00     0.126 A 
HETATM    2  N   UNK N   1      39.850  34.059  48.272  0.00  0.00    -0.292 N 
ATOM      3  HN  UNK N   1      39.870  33.258  47.640  1.00  0.00     0.187 HD
HETATM    4  N   UNK N   1      40.914  34.718  48.702  0.00  0.00    -0.284 N 
HETATM    5  C   UNK N   1      40.516  35.703  49.556  0.00  0.00     0.072 A 
HETATM    6  C   UNK N   1      39.110  35.666  49.610  0.00  0.00     0.019 A 
HETATM    7  C   UNK N   1      38.187  36.586  50.362  0.00  0.00     0.189 C 
HETATM    8  S   UNK N   1      39.092  38.119  50.640  0.00  0.00     0.180 S 
HETATM    9  O   UNK N   1      38.484  38.939  51.787  0.00  0.00    -0.222 OA
HETATM   10  O   UNK N   1      38.911  39.055  49.434  0.00  0.00    -0.222 OA
HETATM   11  C   UNK N   1      40.821  37.835  50.890  0.00  0.00     0.072 A 
HETATM   12  C   UNK N   1      41.592  38.736  51.634  0.00  0.00     0.024 A 
HETATM   13  C   UNK N   1      42.937  38.468  51.877  0.00  0.00     0.002 A 
HETATM   14  C   UNK N   1      43.509  37.294  51.392  0.00  0.00     0.001 A 
HETATM   15  C   UNK N   1      42.747  36.396  50.640  0.00  0.00     0.015 A 
HETATM   16  C   UNK N   1      41.389  36.661  50.349  0.00  0.00     0.014 A 
ENDROOT
BRANCH   4  17
HETATM   17  C   UNK N   1      42.242  34.393  48.165  0.00  0.00     0.126 C 
HETATM   18  C   UNK N   1      42.872  33.207  48.929  0.00  0.00     0.030 C 
HETATM   19  C   UNK N   1      43.938  32.466  48.097  0.00  0.00     0.022 C 
HETATM   20  C   UNK N   1      44.554  33.370  47.022  0.00  0.00     0.117 C 
HETATM   21  N   UNK N   1      43.514  33.903  46.091  0.00  0.00    -0.404 N 
HETATM   22  C   UNK N   1      42.157  34.063  46.670  0.00  0.00     0.144 C 
BRANCH  21  23
HETATM   23  C   UNK N   1      43.470  33.334  44.718  0.00  0.00     0.107 C 
HETATM   24  C   UNK N   1      43.361  31.787  44.775  0.00  0.00     0.028 C 
HETATM   25  C   UNK N   1      42.803  31.283  43.449  0.00  0.00     0.032 C 
HETATM   26  C   UNK N   1      41.348  31.808  43.310  0.00  0.00     0.270 C 
HETATM   27  N   UNK N   1      41.159  33.182  43.835  0.00  0.00     0.085 N 
HETATM   28  C   UNK N   1      42.393  33.965  43.785  0.00  0.00     0.294 C 
HETATM   29  H   UNK N   1      40.395  33.657  43.301  0.00  0.00     0.315 HD
ENDBRANCH  21  23
ENDBRANCH   4  17
BRANCH   1  30
HETATM   30  C   UNK N   1      37.383  34.034  48.569  0.00  0.00     0.272 C 
HETATM   31  O   UNK N   1      36.550  34.169  49.455  0.00  0.00    -0.266 OA
HETATM   32  N   UNK N   1      37.082  33.276  47.455  0.00  0.00    -0.343 N 
HETATM   33  C   UNK N   1      37.883  33.301  46.234  0.00  0.00     0.152 C 
HETATM   34  C   UNK N   1      35.899  32.426  47.411  0.00  0.00     0.152 C 
HETATM   35  C   UNK N   1      36.936  33.619  45.066  0.00  0.00     0.187 C 
HETATM   36  O   UNK N   1      35.891  32.664  44.997  0.00  0.00    -0.388 OA
HETATM   37  C   UNK N   1      35.081  32.758  46.159  0.00  0.00     0.187 C 
ENDBRANCH   1  30
TORSDOF 3
ENDMDL
MODEL 3
REMARK VINA RESULT:      -8.4      4.497      8.105
REMARK  3 active torsions:
REMARK  status: ('A' for Active; 'I' for Inactive)
REMARK    1  A    between atoms: C_2  and  C_3 
REMARK       I    between atoms: C_2  and  N_31 
REMARK    2  A    between atoms: N_6  and  C_7 
REMARK    3  A    between atoms: N_11  and  C_12 
ROOT
HETATM    1  C   UNK N   1      41.644  39.453  52.653  0.00  0.00     0.126 A 
HETATM    2  N   UNK N   1      40.321  39.311  52.479  0.00  0.00    -0.292 N 
ATOM      3  HN  UNK N   1      39.602  39.807  53.006  1.00  0.00     0.187 HD
HETATM    4  N   UNK N   1      40.092  38.429  51.521  0.00  0.00    -0.284 N 
HETATM    5  C   UNK N   1      41.282  37.944  51.065  0.00  0.00     0.072 A 
HETATM    6  C   UNK N   1      42.302  38.614  51.766  0.00  0.00     0.019 A 
HETATM    7  C   UNK N   1      43.790  38.482  51.587  0.00  0.00     0.189 C 
HETATM    8  S   UNK N   1      44.061  37.851  49.922  0.00  0.00     0.180 S 
HETATM    9  O   UNK N   1      45.450  37.214  49.774  0.00  0.00    -0.222 OA
HETATM   10  O   UNK N   1      44.128  39.020  48.927  0.00  0.00    -0.222 OA
HETATM   11  C   UNK N   1      42.780  36.740  49.414  0.00  0.00     0.072 A 
HETATM   12  C   UNK N   1      43.032  35.748  48.460  0.00  0.00     0.024 A 
HETATM   13  C   UNK N   1      42.033  34.840  48.116  0.00  0.00     0.002 A 
HETATM   14  C   UNK N   1      40.788  34.911  48.737  0.00  0.00     0.001 A 
HETATM   15  C   UNK N   1      40.527  35.904  49.685  0.00  0.00     0.015 A 
HETATM   16  C   UNK N   1      41.512  36.860  50.025  0.00  0.00     0.014 A 
ENDROOT
BRANCH   4  17
HETATM   17  C   UNK N   1      38.719  38.196  51.052  0.00  0.00     0.126 C 
HETATM   18  C   UNK N   1      37.696  38.486  52.174  0.00  0.00     0.030 C 
HETATM   19  C   UNK N   1      36.295  38.821  51.624  0.00  0.00     0.022 C 
HETATM   20  C   UNK N   1      36.069  38.222  50.231  0.00  0.00     0.117 C 
HETATM   21  N   UNK N   1      37.089  38.709  49.253  0.00  0.00    -0.404 N 
HETATM   22  C   UNK N   1      38.410  39.066  49.828  0.00  0.00     0.144 C 
BRANCH  21  23
HETATM   23  C   UNK N   1      36.641  39.693  48.232  0.00  0.00     0.107 C 
HETATM   24  C   UNK N   1      35.745  39.003  47.170  0.00  0.00     0.028 C 
HETATM   25  C   UNK N   1      34.898  40.064  46.474  0.00  0.00     0.032 C 
HETATM   26  C   UNK N   1      33.927  40.667  47.525  0.00  0.00     0.270 C 
HETATM   27  N   UNK N   1      34.529  40.820  48.872  0.00  0.00     0.085 N 
HETATM   28  C   UNK N   1      35.980  40.980  48.812  0.00  0.00     0.294 C 
HETATM   29  H   UNK N   1      34.084  41.631  49.362  0.00  0.00     0.315 HD
ENDBRANCH  21  23
ENDBRANCH   4  17
BRANCH   1  30
HETATM   30  C   UNK N   1      42.224  40.316  53.722  0.00  0.00     0.272 C 
HETATM   31  O   UNK N   1      42.777  41.353  53.383  0.00  0.00    -0.266 OA
HETATM   32  N   UNK N   1      42.250  39.926  55.047  0.00  0.00    -0.343 N 
HETATM   33  C   UNK N   1      41.383  38.883  55.587  0.00  0.00     0.152 C 
HETATM   34  C   UNK N   1      43.124  40.577  56.013  0.00  0.00     0.152 C 
HETATM   35  C   UNK N   1      40.638  39.478  56.792  0.00  0.00     0.187 C 
HETATM   36  O   UNK N   1      41.557  39.959  57.758  0.00  0.00    -0.388 OA
HETATM   37  C   UNK N   1      42.296  41.042  57.215  0.00  0.00     0.187 C 
ENDBRANCH   1  30
TORSDOF 3
ENDMDL
MODEL 4
REMARK VINA RESULT:      -8.2      1.812      2.289
REMARK  3 active torsions:
REMARK  status: ('A' for Active; 'I' for Inactive)
REMARK    1  A    between atoms: C_2  and  C_3 
REMARK       I    between atoms: C_2  and  N_31 
REMARK    2  A    between atoms: N_6  and  C_7 
REMARK    3  A    between atoms: N_11  and  C_12 
ROOT
HETATM    1  C   UNK N   1      39.214  34.847  49.795  0.00  0.00     0.126 A 
HETATM    2  N   UNK N   1      39.802  34.257  48.743  0.00  0.00    -0.292 N 
ATOM      3  HN  UNK N   1      39.424  33.461  48.229  1.00  0.00     0.187 HD
HETATM    4  N   UNK N   1      40.947  34.864  48.476  0.00  0.00    -0.284 N 
HETATM    5  C   UNK N   1      41.148  35.859  49.386  0.00  0.00     0.072 A 
HETATM    6  C   UNK N   1      40.025  35.885  50.234  0.00  0.00     0.019 A 
HETATM    7  C   UNK N   1      39.735  36.839  51.360  0.00  0.00     0.189 C 
HETATM    8  S   UNK N   1      40.699  38.327  51.043  0.00  0.00     0.180 S 
HETATM    9  O   UNK N   1      40.889  39.165  52.316  0.00  0.00    -0.222 OA
HETATM   10  O   UNK N   1      39.900  39.280  50.139  0.00  0.00    -0.222 OA
HETATM   11  C   UNK N   1      42.248  37.965  50.266  0.00  0.00     0.072 A 
HETATM   12  C   UNK N   1      43.341  38.825  50.421  0.00  0.00     0.024 A 
HETATM   13  C   UNK N   1      44.572  38.496  49.857  0.00  0.00     0.002 A 
HETATM   14  C   UNK N   1      44.716  37.302  49.154  0.00  0.00     0.001 A 
HETATM   15  C   UNK N   1      43.625  36.444  48.989  0.00  0.00     0.015 A 
HETATM   16  C   UNK N   1      42.357  36.771  49.520  0.00  0.00     0.014 A 
ENDROOT
BRANCH   4  17
HETATM   17  C   UNK N   1      41.716  34.485  47.284  0.00  0.00     0.126 C 
HETATM   18  C   UNK N   1      42.690  33.328  47.599  0.00  0.00     0.030 C 
HETATM   19  C   UNK N   1      43.079  32.523  46.343  0.00  0.00     0.022 C 
HETATM   20  C   UNK N   1      42.939  33.357  45.064  0.00  0.00     0.117 C 
HETATM   21  N   UNK N   1      41.544  33.861  44.887  0.00  0.00    -0.404 N 
HETATM   22  C   UNK N   1      40.778  34.079  46.140  0.00  0.00     0.144 C 
BRANCH  21  23
HETATM   23  C   UNK N   1      40.714  33.223  43.832  0.00  0.00     0.107 C 
HETATM   24  C   UNK N   1      39.438  32.593  44.451  0.00  0.00     0.028 C 
HETATM   25  C   UNK N   1      38.390  32.425  43.357  0.00  0.00     0.032 C 
HETATM   26  C   UNK N   1      37.973  33.840  42.870  0.00  0.00     0.270 C 
HETATM   27  N   UNK N   1      39.099  34.805  42.818  0.00  0.00     0.085 N 
HETATM   28  C   UNK N   1      40.385  34.141  42.616  0.00  0.00     0.294 C 
HETATM   29  H   UNK N   1      38.919  35.508  42.063  0.00  0.00     0.315 HD
ENDBRANCH  21  23
ENDBRANCH   4  17
BRANCH   1  30
HETATM   30  C   UNK N   1      37.948  34.339  50.395  0.00  0.00     0.272 C 
HETATM   31  O   UNK N   1      37.888  33.152  50.687  0.00  0.00    -0.266 OA
HETATM   32  N   UNK N   1      36.826  35.134  50.524  0.00  0.00    -0.343 N 
HETATM   33  C   UNK N   1      36.874  36.592  50.486  0.00  0.00     0.152 C 
HETATM   34  C   UNK N   1      35.508  34.556  50.757  0.00  0.00     0.152 C 
HETATM   35  C   UNK N   1      36.189  37.111  51.760  0.00  0.00     0.187 C 
HETATM   36  O   UNK N   1      34.860  36.625  51.844  0.00  0.00    -0.388 OA
HETATM   37  C   UNK N   1      34.876  35.213  51.988  0.00  0.00     0.187 C 
ENDBRANCH   1  30
TORSDOF 3
ENDMDL
MODEL 5
REMARK VINA RESULT:      -8.2      4.889      8.543
REMARK  3 active torsions:
REMARK  status: ('A' for Active; 'I' for Inactive)
REMARK    1  A    between atoms: C_2  and  C_3 
REMARK       I    between atoms: C_2  and  N_31 
REMARK    2  A    between atoms: N_6  and  C_7 
REMARK    3  A    between atoms: N_11  and  C_12 
ROOT
HETATM    1  C   UNK N   1      40.668  38.876  51.787  0.00  0.00     0.126 A 
HETATM    2  N   UNK N   1      40.344  39.023  53.081  0.00  0.00    -0.292 N 
ATOM      3  HN  UNK N   1      39.393  39.070  53.447  1.00  0.00     0.187 HD
HETATM    4  N   UNK N   1      41.446  39.099  53.809  0.00  0.00    -0.284 N 
HETATM    5  C   UNK N   1      42.531  39.035  52.986  0.00  0.00     0.072 A 
HETATM    6  C   UNK N   1      42.052  38.863  51.675  0.00  0.00     0.019 A 
HETATM    7  C   UNK N   1      42.849  38.676  50.412  0.00  0.00     0.189 C 
HETATM    8  S   UNK N   1      44.465  38.049  50.906  0.00  0.00     0.180 S 
HETATM    9  O   UNK N   1      45.521  38.275  49.814  0.00  0.00    -0.222 OA
HETATM   10  O   UNK N   1      44.418  36.516  51.006  0.00  0.00    -0.222 OA
HETATM   11  C   UNK N   1      44.988  38.709  52.463  0.00  0.00     0.072 A 
HETATM   12  C   UNK N   1      46.350  38.814  52.771  0.00  0.00     0.024 A 
HETATM   13  C   UNK N   1      46.749  39.394  53.974  0.00  0.00     0.002 A 
HETATM   14  C   UNK N   1      45.792  39.883  54.859  0.00  0.00     0.001 A 
HETATM   15  C   UNK N   1      44.431  39.773  54.561  0.00  0.00     0.015 A 
HETATM   16  C   UNK N   1      43.998  39.157  53.364  0.00  0.00     0.014 A 
ENDROOT
BRANCH   4  17
HETATM   17  C   UNK N   1      41.354  39.130  55.274  0.00  0.00     0.126 C 
HETATM   18  C   UNK N   1      41.233  40.582  55.790  0.00  0.00     0.030 C 
HETATM   19  C   UNK N   1      40.574  40.663  57.181  0.00  0.00     0.022 C 
HETATM   20  C   UNK N   1      40.746  39.360  57.972  0.00  0.00     0.117 C 
HETATM   21  N   UNK N   1      40.164  38.194  57.241  0.00  0.00    -0.404 N 
HETATM   22  C   UNK N   1      40.158  38.303  55.761  0.00  0.00     0.144 C 
BRANCH  21  23
HETATM   23  C   UNK N   1      38.893  37.626  57.763  0.00  0.00     0.107 C 
HETATM   24  C   UNK N   1      37.736  37.871  56.758  0.00  0.00     0.028 C 
HETATM   25  C   UNK N   1      36.620  36.870  57.036  0.00  0.00     0.032 C 
HETATM   26  C   UNK N   1      37.163  35.448  56.724  0.00  0.00     0.270 C 
HETATM   27  N   UNK N   1      38.582  35.256  57.109  0.00  0.00     0.085 N 
HETATM   28  C   UNK N   1      38.979  36.135  58.207  0.00  0.00     0.294 C 
HETATM   29  H   UNK N   1      38.743  34.252  57.358  0.00  0.00     0.315 HD
ENDBRANCH  21  23
ENDBRANCH   4  17
BRANCH   1  30
HETATM   30  C   UNK N   1      39.646  38.846  50.703  0.00  0.00     0.272 C 
HETATM   31  O   UNK N   1      39.708  39.705  49.834  0.00  0.00    -0.266 OA
HETATM   32  N   UNK N   1      38.588  37.959  50.716  0.00  0.00    -0.343 N 
HETATM   33  C   UNK N   1      38.581  36.738  51.516  0.00  0.00     0.152 C 
HETATM   34  C   UNK N   1      37.412  38.166  49.880  0.00  0.00     0.152 C 
HETATM   35  C   UNK N   1      38.282  35.565  50.569  0.00  0.00     0.187 C 
HETATM   36  O   UNK N   1      37.049  35.769  49.899  0.00  0.00    -0.388 OA
HETATM   37  C   UNK N   1      37.146  36.904  49.054  0.00  0.00     0.187 C 
ENDBRANCH   1  30
TORSDOF 3
ENDMDL
MODEL 6
REMARK VINA RESULT:      -7.9      5.003     10.123
REMARK  3 active torsions:
REMARK  status: ('A' for Active; 'I' for Inactive)
REMARK    1  A    between atoms: C_2  and  C_3 
REMARK       I    between atoms: C_2  and  N_31 
REMARK    2  A    between atoms: N_6  and  C_7 
REMARK    3  A    between atoms: N_11  and  C_12 
ROOT
HETATM    1  C   UNK N   1      41.511  38.901  51.059  0.00  0.00     0.126 A 
HETATM    2  N   UNK N   1      41.675  39.197  52.358  0.00  0.00    -0.292 N 
ATOM      3  HN  UNK N   1      42.535  39.553  52.776  1.00  0.00     0.187 HD
HETATM    4  N   UNK N   1      40.552  38.956  53.014  0.00  0.00    -0.284 N 
HETATM    5  C   UNK N   1      39.626  38.457  52.146  0.00  0.00     0.072 A 
HETATM    6  C   UNK N   1      40.216  38.439  50.869  0.00  0.00     0.019 A 
HETATM    7  C   UNK N   1      39.589  38.035  49.562  0.00  0.00     0.189 C 
HETATM    8  S   UNK N   1      37.807  38.211  49.764  0.00  0.00     0.180 S 
HETATM    9  O   UNK N   1      37.033  37.390  48.723  0.00  0.00    -0.222 OA
HETATM   10  O   UNK N   1      37.386  39.650  49.428  0.00  0.00    -0.222 OA
HETATM   11  C   UNK N   1      37.283  37.831  51.412  0.00  0.00     0.072 A 
HETATM   12  C   UNK N   1      35.983  37.374  51.659  0.00  0.00     0.024 A 
HETATM   13  C   UNK N   1      35.604  37.018  52.952  0.00  0.00     0.002 A 
HETATM   14  C   UNK N   1      36.525  37.103  53.993  0.00  0.00     0.001 A 
HETATM   15  C   UNK N   1      37.821  37.567  53.754  0.00  0.00     0.015 A 
HETATM   16  C   UNK N   1      38.222  37.968  52.459  0.00  0.00     0.014 A 
ENDROOT
BRANCH   4  17
HETATM   17  C   UNK N   1      40.437  39.325  54.430  0.00  0.00     0.126 C 
HETATM   18  C   UNK N   1      41.833  39.517  55.066  0.00  0.00     0.030 C 
HETATM   19  C   UNK N   1      41.796  40.428  56.310  0.00  0.00     0.022 C 
HETATM   20  C   UNK N   1      40.414  40.433  56.974  0.00  0.00     0.117 C 
HETATM   21  N   UNK N   1      39.351  40.885  56.026  0.00  0.00    -0.404 N 
HETATM   22  C   UNK N   1      39.611  40.607  54.592  0.00  0.00     0.144 C 
BRANCH  21  23
HETATM   23  C   UNK N   1      38.781  42.242  56.236  0.00  0.00     0.107 C 
HETATM   24  C   UNK N   1      37.546  42.458  55.322  0.00  0.00     0.028 C 
HETATM   25  C   UNK N   1      36.694  43.582  55.902  0.00  0.00     0.032 C 
HETATM   26  C   UNK N   1      36.134  43.103  57.269  0.00  0.00     0.270 C 
HETATM   27  N   UNK N   1      37.093  42.284  58.050  0.00  0.00     0.085 N 
HETATM   28  C   UNK N   1      38.482  42.602  57.723  0.00  0.00     0.294 C 
HETATM   29  H   UNK N   1      36.912  42.416  59.073  0.00  0.00     0.315 HD
ENDBRANCH  21  23
ENDBRANCH   4  17
BRANCH   1  30
HETATM   30  C   UNK N   1      42.624  38.986  50.071  0.00  0.00     0.272 C 
HETATM   31  O   UNK N   1      42.467  39.702  49.091  0.00  0.00    -0.266 OA
HETATM   32  N   UNK N   1      43.758  38.205  50.175  0.00  0.00    -0.343 N 
HETATM   33  C   UNK N   1      44.170  37.559  51.418  0.00  0.00     0.152 C 
HETATM   34  C   UNK N   1      44.657  38.015  49.043  0.00  0.00     0.152 C 
HETATM   35  C   UNK N   1      45.620  37.982  51.702  0.00  0.00     0.187 C 
HETATM   36  O   UNK N   1      46.462  37.632  50.616  0.00  0.00    -0.388 OA
HETATM   37  C   UNK N   1      46.086  38.369  49.463  0.00  0.00     0.187 C 
ENDBRANCH   1  30
TORSDOF 3
ENDMDL
MODEL 7
REMARK VINA RESULT:      -7.8      2.761      7.226
REMARK  3 active torsions:
REMARK  status: ('A' for Active; 'I' for Inactive)
REMARK    1  A    between atoms: C_2  and  C_3 
REMARK       I    between atoms: C_2  and  N_31 
REMARK    2  A    between atoms: N_6  and  C_7 
REMARK    3  A    between atoms: N_11  and  C_12 
ROOT
HETATM    1  C   UNK N   1      41.937  34.044  48.480  0.00  0.00     0.126 A 
HETATM    2  N   UNK N   1      40.601  33.921  48.511  0.00  0.00    -0.292 N 
ATOM      3  HN  UNK N   1      40.079  33.097  48.211  1.00  0.00     0.187 HD
HETATM    4  N   UNK N   1      40.064  35.031  48.990  0.00  0.00    -0.284 N 
HETATM    5  C   UNK N   1      41.055  35.930  49.253  0.00  0.00     0.072 A 
HETATM    6  C   UNK N   1      42.278  35.302  48.957  0.00  0.00     0.019 A 
HETATM    7  C   UNK N   1      43.669  35.849  49.136  0.00  0.00     0.189 C 
HETATM    8  S   UNK N   1      43.562  37.143  50.384  0.00  0.00     0.180 S 
HETATM    9  O   UNK N   1      44.761  38.100  50.316  0.00  0.00    -0.222 OA
HETATM   10  O   UNK N   1      43.712  36.528  51.785  0.00  0.00    -0.222 OA
HETATM   11  C   UNK N   1      42.026  38.019  50.306  0.00  0.00     0.072 A 
HETATM   12  C   UNK N   1      41.935  39.341  50.759  0.00  0.00     0.024 A 
HETATM   13  C   UNK N   1      40.736  40.040  50.632  0.00  0.00     0.002 A 
HETATM   14  C   UNK N   1      39.635  39.426  50.040  0.00  0.00     0.001 A 
HETATM   15  C   UNK N   1      39.717  38.105  49.594  0.00  0.00     0.015 A 
HETATM   16  C   UNK N   1      40.911  37.361  49.743  0.00  0.00     0.014 A 
ENDROOT
BRANCH   4  17
HETATM   17  C   UNK N   1      38.619  35.094  49.246  0.00  0.00     0.126 C 
HETATM   18  C   UNK N   1      37.864  34.028  48.420  0.00  0.00     0.030 C 
HETATM   19  C   UNK N   1      36.503  33.654  49.038  0.00  0.00     0.022 C 
HETATM   20  C   UNK N   1      35.945  34.782  49.916  0.00  0.00     0.117 C 
HETATM   21  N   UNK N   1      36.885  35.133  51.022  0.00  0.00    -0.404 N 
HETATM   22  C   UNK N   1      38.324  34.901  50.738  0.00  0.00     0.144 C 
BRANCH  21  23
HETATM   23  C   UNK N   1      36.513  34.708  52.397  0.00  0.00     0.107 C 
HETATM   24  C   UNK N   1      37.272  33.412  52.788  0.00  0.00     0.028 C 
HETATM   25  C   UNK N   1      37.295  33.294  54.308  0.00  0.00     0.032 C 
HETATM   26  C   UNK N   1      38.141  34.470  54.869  0.00  0.00     0.270 C 
HETATM   27  N   UNK N   1      37.958  35.740  54.125  0.00  0.00     0.085 N 
HETATM   28  C   UNK N   1      36.648  35.818  53.482  0.00  0.00     0.294 C 
HETATM   29  H   UNK N   1      38.103  36.548  54.776  0.00  0.00     0.315 HD
ENDBRANCH  21  23
ENDBRANCH   4  17
BRANCH   1  30
HETATM   30  C   UNK N   1      42.826  32.992  47.911  0.00  0.00     0.272 C 
HETATM   31  O   UNK N   1      43.263  32.138  48.672  0.00  0.00    -0.266 OA
HETATM   32  N   UNK N   1      43.250  33.020  46.597  0.00  0.00    -0.343 N 
HETATM   33  C   UNK N   1      42.577  33.796  45.560  0.00  0.00     0.152 C 
HETATM   34  C   UNK N   1      44.386  32.226  46.147  0.00  0.00     0.152 C 
HETATM   35  C   UNK N   1      42.242  32.836  44.407  0.00  0.00     0.187 C 
HETATM   36  O   UNK N   1      43.418  32.209  43.924  0.00  0.00    -0.388 OA
HETATM   37  C   UNK N   1      43.970  31.384  44.938  0.00  0.00     0.187 C 
ENDBRANCH   1  30
TORSDOF 3
ENDMDL
MODEL 8
REMARK VINA RESULT:      -7.8      5.829      7.822
REMARK  3 active torsions:
REMARK  status: ('A' for Active; 'I' for Inactive)
REMARK    1  A    between atoms: C_2  and  C_3 
REMARK       I    between atoms: C_2  and  N_31 
REMARK    2  A    between atoms: N_6  and  C_7 
REMARK    3  A    between atoms: N_11  and  C_12 
ROOT
HETATM    1  C   UNK N   1      38.973  38.942  55.534  0.00  0.00     0.126 A 
HETATM    2  N   UNK N   1      40.198  39.474  55.664  0.00  0.00    -0.292 N 
ATOM      3  HN  UNK N   1      40.617  39.778  56.543  1.00  0.00     0.187 HD
HETATM    4  N   UNK N   1      40.779  39.544  54.478  0.00  0.00    -0.284 N 
HETATM    5  C   UNK N   1      39.916  39.082  53.528  0.00  0.00     0.072 A 
HETATM    6  C   UNK N   1      38.750  38.661  54.194  0.00  0.00     0.019 A 
HETATM    7  C   UNK N   1      37.524  38.018  53.601  0.00  0.00     0.189 C 
HETATM    8  S   UNK N   1      38.031  37.271  52.042  0.00  0.00     0.180 S 
HETATM    9  O   UNK N   1      36.833  37.020  51.115  0.00  0.00    -0.222 OA
HETATM   10  O   UNK N   1      38.556  35.848  52.294  0.00  0.00    -0.222 OA
HETATM   11  C   UNK N   1      39.294  38.211  51.232  0.00  0.00     0.072 A 
HETATM   12  C   UNK N   1      39.443  38.156  49.841  0.00  0.00     0.024 A 
HETATM   13  C   UNK N   1      40.399  38.949  49.210  0.00  0.00     0.002 A 
HETATM   14  C   UNK N   1      41.193  39.810  49.965  0.00  0.00     0.001 A 
HETATM   15  C   UNK N   1      41.055  39.863  51.354  0.00  0.00     0.015 A 
HETATM   16  C   UNK N   1      40.118  39.042  52.023  0.00  0.00     0.014 A 
ENDROOT
BRANCH   4  17
HETATM   17  C   UNK N   1      42.181  39.969  54.373  0.00  0.00     0.126 C 
HETATM   18  C   UNK N   1      42.783  40.236  55.771  0.00  0.00     0.030 C 
HETATM   19  C   UNK N   1      44.320  40.117  55.786  0.00  0.00     0.022 C 
HETATM   20  C   UNK N   1      44.926  40.369  54.400  0.00  0.00     0.117 C 
HETATM   21  N   UNK N   1      44.389  39.415  53.384  0.00  0.00    -0.404 N 
HETATM   22  C   UNK N   1      43.015  38.913  53.639  0.00  0.00     0.144 C 
BRANCH  21  23
HETATM   23  C   UNK N   1      45.296  38.337  52.910  0.00  0.00     0.107 C 
HETATM   24  C   UNK N   1      45.250  38.229  51.363  0.00  0.00     0.028 C 
HETATM   25  C   UNK N   1      46.515  37.530  50.878  0.00  0.00     0.032 C 
HETATM   26  C   UNK N   1      47.725  38.447  51.205  0.00  0.00     0.270 C 
HETATM   27  N   UNK N   1      47.599  39.158  52.501  0.00  0.00     0.085 N 
HETATM   28  C   UNK N   1      46.756  38.430  53.448  0.00  0.00     0.294 C 
HETATM   29  H   UNK N   1      48.552  39.323  52.901  0.00  0.00     0.315 HD
ENDBRANCH  21  23
ENDBRANCH   4  17
BRANCH   1  30
HETATM   30  C   UNK N   1      38.031  38.809  56.682  0.00  0.00     0.272 C 
HETATM   31  O   UNK N   1      37.354  39.783  56.983  0.00  0.00    -0.266 OA
HETATM   32  N   UNK N   1      37.986  37.674  57.467  0.00  0.00    -0.343 N 
HETATM   33  C   UNK N   1      38.515  36.384  57.034  0.00  0.00     0.152 C 
HETATM   34  C   UNK N   1      37.352  37.682  58.779  0.00  0.00     0.152 C 
HETATM   35  C   UNK N   1      37.390  35.348  57.183  0.00  0.00     0.187 C 
HETATM   36  O   UNK N   1      36.924  35.309  58.521  0.00  0.00    -0.388 OA
HETATM   37  C   UNK N   1      36.322  36.550  58.854  0.00  0.00     0.187 C 
ENDBRANCH   1  30
TORSDOF 3
ENDMDL
MODEL 9
REMARK VINA RESULT:      -7.8      2.545      6.881
REMARK  3 active torsions:
REMARK  status: ('A' for Active; 'I' for Inactive)
REMARK    1  A    between atoms: C_2  and  C_3 
REMARK       I    between atoms: C_2  and  N_31 
REMARK    2  A    between atoms: N_6  and  C_7 
REMARK    3  A    between atoms: N_11  and  C_12 
ROOT
HETATM    1  C   UNK N   1      40.621  34.864  48.177  0.00  0.00     0.126 A 
HETATM    2  N   UNK N   1      39.485  34.449  48.757  0.00  0.00    -0.292 N 
ATOM      3  HN  UNK N   1      38.911  33.669  48.435  1.00  0.00     0.187 HD
HETATM    4  N   UNK N   1      39.223  35.204  49.812  0.00  0.00    -0.284 N 
HETATM    5  C   UNK N   1      40.183  36.166  49.922  0.00  0.00     0.072 A 
HETATM    6  C   UNK N   1      41.114  35.948  48.890  0.00  0.00     0.019 A 
HETATM    7  C   UNK N   1      42.389  36.700  48.616  0.00  0.00     0.189 C 
HETATM    8  S   UNK N   1      42.879  37.475  50.167  0.00  0.00     0.180 S 
HETATM    9  O   UNK N   1      43.850  38.642  49.938  0.00  0.00    -0.222 OA
HETATM   10  O   UNK N   1      43.730  36.496  50.991  0.00  0.00    -0.222 OA
HETATM   11  C   UNK N   1      41.482  37.973  51.133  0.00  0.00     0.072 A 
HETATM   12  C   UNK N   1      41.586  39.029  52.047  0.00  0.00     0.024 A 
HETATM   13  C   UNK N   1      40.463  39.452  52.754  0.00  0.00     0.002 A 
HETATM   14  C   UNK N   1      39.233  38.833  52.539  0.00  0.00     0.001 A 
HETATM   15  C   UNK N   1      39.125  37.772  51.635  0.00  0.00     0.015 A 
HETATM   16  C   UNK N   1      40.256  37.300  50.931  0.00  0.00     0.014 A 
ENDROOT
BRANCH   4  17
HETATM   17  C   UNK N   1      38.100  34.864  50.694  0.00  0.00     0.126 C 
HETATM   18  C   UNK N   1      36.825  35.637  50.287  0.00  0.00     0.030 C 
HETATM   19  C   UNK N   1      35.534  34.937  50.757  0.00  0.00     0.022 C 
HETATM   20  C   UNK N   1      35.781  34.038  51.974  0.00  0.00     0.117 C 
HETATM   21  N   UNK N   1      36.807  32.991  51.684  0.00  0.00    -0.404 N 
HETATM   22  C   UNK N   1      37.825  33.356  50.668  0.00  0.00     0.144 C 
BRANCH  21  23
HETATM   23  C   UNK N   1      36.329  31.594  51.517  0.00  0.00     0.107 C 
HETATM   24  C   UNK N   1      35.224  31.270  52.557  0.00  0.00     0.028 C 
HETATM   25  C   UNK N   1      34.407  30.084  52.057  0.00  0.00     0.032 C 
HETATM   26  C   UNK N   1      33.661  30.525  50.767  0.00  0.00     0.270 C 
HETATM   27  N   UNK N   1      34.459  31.425  49.899  0.00  0.00     0.085 N 
HETATM   28  C   UNK N   1      35.896  31.221  50.066  0.00  0.00     0.294 C 
HETATM   29  H   UNK N   1      34.176  31.286  48.900  0.00  0.00     0.315 HD
ENDBRANCH  21  23
ENDBRANCH   4  17
BRANCH   1  30
HETATM   30  C   UNK N   1      41.140  34.268  46.913  0.00  0.00     0.272 C 
HETATM   31  O   UNK N   1      40.535  34.506  45.876  0.00  0.00    -0.266 OA
HETATM   32  N   UNK N   1      42.199  33.382  46.900  0.00  0.00    -0.343 N 
HETATM   33  C   UNK N   1      43.151  33.262  48.000  0.00  0.00     0.152 C 
HETATM   34  C   UNK N   1      42.464  32.531  45.747  0.00  0.00     0.152 C 
HETATM   35  C   UNK N   1      44.561  33.437  47.414  0.00  0.00     0.187 C 
HETATM   36  O   UNK N   1      44.800  32.479  46.397  0.00  0.00    -0.388 OA
HETATM   37  C   UNK N   1      43.920  32.709  45.307  0.00  0.00     0.187 C 
ENDBRANCH   1  30
TORSDOF 3
ENDMDL
