MODEL 1
REMARK VINA RESULT:      -8.6      0.000      0.000
REMARK  4 active torsions:
REMARK  status: ('A' for Active; 'I' for Inactive)
REMARK    1  A    between atoms: C_2  and  C_3 
REMARK       I    between atoms: C_2  and  N_33 
REMARK    2  A    between atoms: N_6  and  C_7 
REMARK    3  A    between atoms: N_11  and  C_12 
REMARK    4  A    between atoms: C_12  and  C_13 
ROOT
HETATM    1  C   UNK N   1      39.187  34.909  49.327  0.00  0.00     0.126 A 
HETATM    2  N   UNK N   1      40.226  34.284  48.759  0.00  0.00    -0.292 N 
ATOM      3  HN  UNK N   1      40.159  33.444  48.185  1.00  0.00     0.187 HD
HETATM    4  N   UNK N   1      41.350  34.917  49.050  0.00  0.00    -0.284 N 
HETATM    5  C   UNK N   1      41.069  35.958  49.883  0.00  0.00     0.074 A 
HETATM    6  C   UNK N   1      39.668  36.010  50.024  0.00  0.00     0.019 A 
HETATM    7  C   UNK N   1      38.849  37.037  50.761  0.00  0.00     0.191 C 
HETATM    8  S   UNK N   1      39.874  38.511  50.925  0.00  0.00     0.196 S 
HETATM    9  O   UNK N   1      39.402  39.416  52.073  0.00  0.00    -0.221 OA
HETATM   10  O   UNK N   1      39.681  39.416  49.697  0.00  0.00    -0.221 OA
HETATM   11  C   UNK N   1      41.589  38.125  51.077  0.00  0.00     0.141 A 
HETATM   12  N   UNK N   1      42.429  38.974  51.725  0.00  0.00    -0.356 N 
ATOM     13  HN  UNK N   1      42.072  39.867  52.065  1.00  0.00     0.166 HD
HETATM   14  C   UNK N   1      43.735  38.662  51.929  0.00  0.00     0.089 A 
HETATM   15  C   UNK N   1      44.230  37.433  51.499  0.00  0.00     0.018 A 
HETATM   16  C   UNK N   1      43.388  36.547  50.827  0.00  0.00     0.018 A 
HETATM   17  C   UNK N   1      42.045  36.891  50.571  0.00  0.00     0.031 A 
ENDROOT
BRANCH   4  18
HETATM   18  C   UNK N   1      42.601  34.484  48.407  0.00  0.00     0.137 C 
HETATM   19  C   UNK N   1      42.901  33.024  48.764  0.00  0.00     0.031 C 
HETATM   20  C   UNK N   1      44.203  32.547  48.092  0.00  0.00     0.032 C 
HETATM   21  C   UNK N   1      44.549  33.362  46.826  0.00  0.00     0.272 C 
HETATM   22  N   UNK N   1      43.355  33.752  46.060  0.00  0.00     0.090 N 
HETATM   23  C   UNK N   1      42.427  34.606  46.858  0.00  0.00     0.299 C 
BRANCH  22  24
HETATM   24  C   UNK N   1      42.663  32.608  45.418  0.00  0.00     0.277 C 
BRANCH  24  25
HETATM   25  C   UNK N   1      42.852  32.669  43.876  0.00  0.00     0.018 C 
HETATM   26  C   UNK N   1      42.429  31.330  43.210  0.00  0.00     0.032 C 
HETATM   27  C   UNK N   1      40.993  31.406  42.637  0.00  0.00     0.168 C 
HETATM   28  O   UNK N   1      40.138  32.154  43.477  0.00  0.00    -0.391 OA
HETATM   29  C   UNK N   1      40.521  33.534  43.525  0.00  0.00     0.168 C 
HETATM   30  C   UNK N   1      42.026  33.801  43.250  0.00  0.00     0.032 C 
ENDBRANCH  24  25
ENDBRANCH  22  24
ENDBRANCH   4  18
BRANCH   1  31
HETATM   31  C   UNK N   1      37.784  34.383  49.270  0.00  0.00     0.272 C 
HETATM   32  O   UNK N   1      37.209  34.435  48.192  0.00  0.00    -0.266 OA
HETATM   33  N   UNK N   1      37.085  33.979  50.396  0.00  0.00    -0.343 N 
HETATM   34  C   UNK N   1      37.708  33.686  51.687  0.00  0.00     0.152 C 
HETATM   35  C   UNK N   1      35.632  33.832  50.361  0.00  0.00     0.152 C 
HETATM   36  C   UNK N   1      37.191  32.324  52.176  0.00  0.00     0.187 C 
HETATM   37  O   UNK N   1      35.777  32.324  52.249  0.00  0.00    -0.388 OA
HETATM   38  C   UNK N   1      35.237  32.473  50.947  0.00  0.00     0.187 C 
ENDBRANCH   1  31
TORSDOF 4
ENDMDL
MODEL 2
REMARK VINA RESULT:      -8.3      1.588      2.318
REMARK  4 active torsions:
REMARK  status: ('A' for Active; 'I' for Inactive)
REMARK    1  A    between atoms: C_2  and  C_3 
REMARK       I    between atoms: C_2  and  N_33 
REMARK    2  A    between atoms: N_6  and  C_7 
REMARK    3  A    between atoms: N_11  and  C_12 
REMARK    4  A    between atoms: C_12  and  C_13 
ROOT
HETATM    1  C   UNK N   1      38.939  34.626  48.699  0.00  0.00     0.126 A 
HETATM    2  N   UNK N   1      40.046  34.094  48.168  0.00  0.00    -0.292 N 
ATOM      3  HN  UNK N   1      40.063  33.300  47.529  1.00  0.00     0.187 HD
HETATM    4  N   UNK N   1      41.114  34.749  48.592  0.00  0.00    -0.284 N 
HETATM    5  C   UNK N   1      40.722  35.708  49.478  0.00  0.00     0.074 A 
HETATM    6  C   UNK N   1      39.313  35.689  49.513  0.00  0.00     0.019 A 
HETATM    7  C   UNK N   1      38.393  36.618  50.260  0.00  0.00     0.191 C 
HETATM    8  S   UNK N   1      39.330  38.117  50.615  0.00  0.00     0.196 S 
HETATM    9  O   UNK N   1      38.732  38.907  51.788  0.00  0.00    -0.221 OA
HETATM   10  O   UNK N   1      39.185  39.107  49.448  0.00  0.00    -0.221 OA
HETATM   11  C   UNK N   1      41.046  37.794  50.869  0.00  0.00     0.141 A 
HETATM   12  N   UNK N   1      41.794  38.624  51.643  0.00  0.00    -0.356 N 
ATOM     13  HN  UNK N   1      41.370  39.471  52.021  1.00  0.00     0.166 HD
HETATM   14  C   UNK N   1      43.094  38.352  51.923  0.00  0.00     0.089 A 
HETATM   15  C   UNK N   1      43.679  37.184  51.441  0.00  0.00     0.018 A 
HETATM   16  C   UNK N   1      42.933  36.319  50.641  0.00  0.00     0.018 A 
HETATM   17  C   UNK N   1      41.597  36.625  50.307  0.00  0.00     0.031 A 
ENDROOT
BRANCH   4  18
HETATM   18  C   UNK N   1      42.429  34.422  48.017  0.00  0.00     0.137 C 
HETATM   19  C   UNK N   1      42.869  33.025  48.465  0.00  0.00     0.031 C 
HETATM   20  C   UNK N   1      44.240  32.658  47.866  0.00  0.00     0.032 C 
HETATM   21  C   UNK N   1      44.546  33.438  46.568  0.00  0.00     0.272 C 
HETATM   22  N   UNK N   1      43.349  33.656  45.742  0.00  0.00     0.090 N 
HETATM   23  C   UNK N   1      42.303  34.443  46.459  0.00  0.00     0.299 C 
BRANCH  22  24
HETATM   24  C   UNK N   1      42.809  32.411  45.142  0.00  0.00     0.277 C 
BRANCH  24  25
HETATM   25  C   UNK N   1      42.907  32.481  43.592  0.00  0.00     0.018 C 
HETATM   26  C   UNK N   1      42.429  31.152  42.943  0.00  0.00     0.032 C 
HETATM   27  C   UNK N   1      40.963  31.248  42.457  0.00  0.00     0.168 C 
HETATM   28  O   UNK N   1      40.168  32.000  43.351  0.00  0.00    -0.391 OA
HETATM   29  C   UNK N   1      40.570  33.376  43.385  0.00  0.00     0.168 C 
HETATM   30  C   UNK N   1      42.059  33.627  43.024  0.00  0.00     0.032 C 
ENDBRANCH  24  25
ENDBRANCH  22  24
ENDBRANCH   4  18
BRANCH   1  31
HETATM   31  C   UNK N   1      37.572  34.048  48.495  0.00  0.00     0.272 C 
HETATM   32  O   UNK N   1      36.785  34.124  49.427  0.00  0.00    -0.266 OA
HETATM   33  N   UNK N   1      37.220  33.326  47.365  0.00  0.00    -0.343 N 
HETATM   34  C   UNK N   1      37.985  33.331  46.117  0.00  0.00     0.152 C 
HETATM   35  C   UNK N   1      36.032  32.477  47.360  0.00  0.00     0.152 C 
HETATM   36  C   UNK N   1      37.014  33.596  44.955  0.00  0.00     0.187 C 
HETATM   37  O   UNK N   1      35.974  32.633  44.946  0.00  0.00    -0.388 OA
HETATM   38  C   UNK N   1      35.189  32.775  46.117  0.00  0.00     0.187 C 
ENDBRANCH   1  31
TORSDOF 4
ENDMDL
MODEL 3
REMARK VINA RESULT:      -8.3      4.251      9.016
REMARK  4 active torsions:
REMARK  status: ('A' for Active; 'I' for Inactive)
REMARK    1  A    between atoms: C_2  and  C_3 
REMARK       I    between atoms: C_2  and  N_33 
REMARK    2  A    between atoms: N_6  and  C_7 
REMARK    3  A    between atoms: N_11  and  C_12 
REMARK    4  A    between atoms: C_12  and  C_13 
ROOT
HETATM    1  C   UNK N   1      40.034  38.227  51.510  0.00  0.00     0.126 A 
HETATM    2  N   UNK N   1      40.679  38.765  52.551  0.00  0.00    -0.292 N 
ATOM      3  HN  UNK N   1      40.230  39.225  53.342  1.00  0.00     0.187 HD
HETATM    4  N   UNK N   1      41.985  38.612  52.405  0.00  0.00    -0.284 N 
HETATM    5  C   UNK N   1      42.228  38.009  51.207  0.00  0.00     0.074 A 
HETATM    6  C   UNK N   1      40.978  37.693  50.640  0.00  0.00     0.019 A 
HETATM    7  C   UNK N   1      40.703  36.932  49.370  0.00  0.00     0.191 C 
HETATM    8  S   UNK N   1      42.182  35.971  48.999  0.00  0.00     0.196 S 
HETATM    9  O   UNK N   1      42.258  35.579  47.516  0.00  0.00    -0.221 OA
HETATM   10  O   UNK N   1      42.098  34.602  49.693  0.00  0.00    -0.221 OA
HETATM   11  C   UNK N   1      43.660  36.779  49.525  0.00  0.00     0.141 A 
HETATM   12  N   UNK N   1      44.840  36.528  48.899  0.00  0.00    -0.356 N 
ATOM     13  HN  UNK N   1      44.876  35.820  48.167  1.00  0.00     0.166 HD
HETATM   14  C   UNK N   1      45.974  37.199  49.228  0.00  0.00     0.089 A 
HETATM   15  C   UNK N   1      45.935  38.192  50.203  0.00  0.00     0.018 A 
HETATM   16  C   UNK N   1      44.737  38.465  50.863  0.00  0.00     0.018 A 
HETATM   17  C   UNK N   1      43.569  37.734  50.557  0.00  0.00     0.031 A 
ENDROOT
BRANCH   4  18
HETATM   18  C   UNK N   1      42.878  39.002  53.507  0.00  0.00     0.137 C 
HETATM   19  C   UNK N   1      43.305  40.465  53.350  0.00  0.00     0.031 C 
HETATM   20  C   UNK N   1      44.234  40.898  54.500  0.00  0.00     0.032 C 
HETATM   21  C   UNK N   1      44.041  40.041  55.771  0.00  0.00     0.272 C 
HETATM   22  N   UNK N   1      42.638  39.652  55.984  0.00  0.00     0.090 N 
HETATM   23  C   UNK N   1      42.100  38.840  54.853  0.00  0.00     0.299 C 
BRANCH  22  24
HETATM   24  C   UNK N   1      41.755  40.790  56.335  0.00  0.00     0.277 C 
BRANCH  24  25
HETATM   25  C   UNK N   1      40.401  40.262  56.889  0.00  0.00     0.018 C 
HETATM   26  C   UNK N   1      40.605  39.505  58.231  0.00  0.00     0.032 C 
HETATM   27  C   UNK N   1      40.296  40.408  59.449  0.00  0.00     0.168 C 
HETATM   28  O   UNK N   1      40.734  41.734  59.237  0.00  0.00    -0.391 OA
HETATM   29  C   UNK N   1      39.995  42.373  58.188  0.00  0.00     0.168 C 
HETATM   30  C   UNK N   1      39.404  41.405  57.127  0.00  0.00     0.032 C 
ENDBRANCH  24  25
ENDBRANCH  22  24
ENDBRANCH   4  18
BRANCH   1  31
HETATM   31  C   UNK N   1      38.550  38.324  51.326  0.00  0.00     0.272 C 
HETATM   32  O   UNK N   1      38.139  39.098  50.473  0.00  0.00    -0.266 OA
HETATM   33  N   UNK N   1      37.644  37.687  52.160  0.00  0.00    -0.343 N 
HETATM   34  C   UNK N   1      37.994  36.599  53.073  0.00  0.00     0.152 C 
HETATM   35  C   UNK N   1      36.241  38.092  52.187  0.00  0.00     0.152 C 
HETATM   36  C   UNK N   1      36.994  35.451  52.865  0.00  0.00     0.187 C 
HETATM   37  O   UNK N   1      35.666  35.906  53.054  0.00  0.00    -0.388 OA
HETATM   38  C   UNK N   1      35.345  36.857  52.054  0.00  0.00     0.187 C 
ENDBRANCH   1  31
TORSDOF 4
ENDMDL
MODEL 4
REMARK VINA RESULT:      -8.3      4.012      5.932
REMARK  4 active torsions:
REMARK  status: ('A' for Active; 'I' for Inactive)
REMARK    1  A    between atoms: C_2  and  C_3 
REMARK       I    between atoms: C_2  and  N_33 
REMARK    2  A    between atoms: N_6  and  C_7 
REMARK    3  A    between atoms: N_11  and  C_12 
REMARK    4  A    between atoms: C_12  and  C_13 
ROOT
HETATM    1  C   UNK N   1      39.587  33.363  45.723  0.00  0.00     0.126 A 
HETATM    2  N   UNK N   1      39.891  33.064  44.455  0.00  0.00    -0.292 N 
ATOM      3  HN  UNK N   1      39.211  32.845  43.727  1.00  0.00     0.187 HD
HETATM    4  N   UNK N   1      41.202  33.096  44.282  0.00  0.00    -0.284 N 
HETATM    5  C   UNK N   1      41.799  33.363  45.478  0.00  0.00     0.074 A 
HETATM    6  C   UNK N   1      40.770  33.604  46.411  0.00  0.00     0.019 A 
HETATM    7  C   UNK N   1      40.905  34.038  47.846  0.00  0.00     0.191 C 
HETATM    8  S   UNK N   1      42.537  34.783  48.022  0.00  0.00     0.196 S 
HETATM    9  O   UNK N   1      43.015  34.786  49.481  0.00  0.00    -0.221 OA
HETATM   10  O   UNK N   1      42.458  36.285  47.703  0.00  0.00    -0.221 OA
HETATM   11  C   UNK N   1      43.734  34.043  46.957  0.00  0.00     0.141 A 
HETATM   12  N   UNK N   1      45.051  34.057  47.290  0.00  0.00    -0.356 N 
ATOM     13  HN  UNK N   1      45.349  34.556  48.127  1.00  0.00     0.166 HD
HETATM   14  C   UNK N   1      45.981  33.421  46.531  0.00  0.00     0.089 A 
HETATM   15  C   UNK N   1      45.586  32.708  45.402  0.00  0.00     0.018 A 
HETATM   16  C   UNK N   1      44.240  32.683  45.037  0.00  0.00     0.018 A 
HETATM   17  C   UNK N   1      43.280  33.384  45.797  0.00  0.00     0.031 A 
ENDROOT
BRANCH   4  18
HETATM   18  C   UNK N   1      41.749  32.940  42.925  0.00  0.00     0.137 C 
HETATM   19  C   UNK N   1      41.401  31.554  42.371  0.00  0.00     0.031 C 
HETATM   20  C   UNK N   1      41.957  31.373  40.945  0.00  0.00     0.032 C 
HETATM   21  C   UNK N   1      42.171  32.719  40.218  0.00  0.00     0.272 C 
HETATM   22  N   UNK N   1      41.137  33.713  40.550  0.00  0.00     0.090 N 
HETATM   23  C   UNK N   1      41.108  34.032  42.008  0.00  0.00     0.299 C 
BRANCH  22  24
HETATM   24  C   UNK N   1      39.796  33.372  40.018  0.00  0.00     0.277 C 
BRANCH  24  25
HETATM   25  C   UNK N   1      39.205  34.586  39.246  0.00  0.00     0.018 C 
HETATM   26  C   UNK N   1      38.078  34.134  38.275  0.00  0.00     0.032 C 
HETATM   27  C   UNK N   1      36.674  34.350  38.890  0.00  0.00     0.168 C 
HETATM   28  O   UNK N   1      36.663  34.062  40.272  0.00  0.00    -0.391 OA
HETATM   29  C   UNK N   1      37.467  34.991  41.012  0.00  0.00     0.168 C 
HETATM   30  C   UNK N   1      38.625  35.636  40.203  0.00  0.00     0.032 C 
ENDBRANCH  24  25
ENDBRANCH  22  24
ENDBRANCH   4  18
BRANCH   1  31
HETATM   31  C   UNK N   1      38.190  33.315  46.264  0.00  0.00     0.272 C 
HETATM   32  O   UNK N   1      37.918  34.072  47.185  0.00  0.00    -0.266 OA
HETATM   33  N   UNK N   1      37.258  32.372  45.862  0.00  0.00    -0.343 N 
HETATM   34  C   UNK N   1      37.386  31.555  44.654  0.00  0.00     0.152 C 
HETATM   35  C   UNK N   1      36.059  32.119  46.657  0.00  0.00     0.152 C 
HETATM   36  C   UNK N   1      36.068  31.642  43.868  0.00  0.00     0.187 C 
HETATM   37  O   UNK N   1      34.977  31.238  44.678  0.00  0.00    -0.388 OA
HETATM   38  C   UNK N   1      34.824  32.150  45.752  0.00  0.00     0.187 C 
ENDBRANCH   1  31
TORSDOF 4
ENDMDL
MODEL 5
REMARK VINA RESULT:      -8.1      4.668      7.036
REMARK  4 active torsions:
REMARK  status: ('A' for Active; 'I' for Inactive)
REMARK    1  A    between atoms: C_2  and  C_3 
REMARK       I    between atoms: C_2  and  N_33 
REMARK    2  A    between atoms: N_6  and  C_7 
REMARK    3  A    between atoms: N_11  and  C_12 
REMARK    4  A    between atoms: C_12  and  C_13 
ROOT
HETATM    1  C   UNK N   1      39.780  38.710  54.823  0.00  0.00     0.126 A 
HETATM    2  N   UNK N   1      40.001  38.669  53.504  0.00  0.00    -0.292 N 
ATOM      3  HN  UNK N   1      39.308  38.406  52.804  1.00  0.00     0.187 HD
HETATM    4  N   UNK N   1      41.248  39.021  53.241  0.00  0.00    -0.284 N 
HETATM    5  C   UNK N   1      41.901  39.246  54.415  0.00  0.00     0.074 A 
HETATM    6  C   UNK N   1      40.953  39.113  55.450  0.00  0.00     0.019 A 
HETATM    7  C   UNK N   1      41.148  39.360  56.922  0.00  0.00     0.191 C 
HETATM    8  S   UNK N   1      42.594  40.424  57.092  0.00  0.00     0.196 S 
HETATM    9  O   UNK N   1      43.217  40.330  58.493  0.00  0.00    -0.221 OA
HETATM   10  O   UNK N   1      42.162  41.898  57.027  0.00  0.00    -0.221 OA
HETATM   11  C   UNK N   1      43.797  40.132  55.835  0.00  0.00     0.141 A 
HETATM   12  N   UNK N   1      45.110  40.398  56.066  0.00  0.00    -0.356 N 
ATOM     13  HN  UNK N   1      45.384  40.828  56.948  1.00  0.00     0.166 HD
HETATM   14  C   UNK N   1      46.064  40.103  55.147  0.00  0.00     0.089 A 
HETATM   15  C   UNK N   1      45.710  39.485  53.951  0.00  0.00     0.018 A 
HETATM   16  C   UNK N   1      44.369  39.207  53.689  0.00  0.00     0.018 A 
HETATM   17  C   UNK N   1      43.370  39.557  54.621  0.00  0.00     0.031 A 
ENDROOT
BRANCH   4  18
HETATM   18  C   UNK N   1      41.665  39.185  51.839  0.00  0.00     0.137 C 
HETATM   19  C   UNK N   1      42.421  37.942  51.362  0.00  0.00     0.031 C 
HETATM   20  C   UNK N   1      42.858  38.089  49.892  0.00  0.00     0.032 C 
HETATM   21  C   UNK N   1      41.976  39.087  49.110  0.00  0.00     0.272 C 
HETATM   22  N   UNK N   1      40.564  39.036  49.520  0.00  0.00     0.090 N 
HETATM   23  C   UNK N   1      40.382  39.370  50.963  0.00  0.00     0.299 C 
BRANCH  22  24
HETATM   24  C   UNK N   1      39.881  37.776  49.139  0.00  0.00     0.277 C 
BRANCH  24  25
HETATM   25  C   UNK N   1      38.934  37.317  50.283  0.00  0.00     0.018 C 
HETATM   26  C   UNK N   1      37.459  37.260  49.796  0.00  0.00     0.032 C 
HETATM   27  C   UNK N   1      37.040  35.820  49.410  0.00  0.00     0.168 C 
HETATM   28  O   UNK N   1      38.092  35.128  48.770  0.00  0.00    -0.391 OA
HETATM   29  C   UNK N   1      39.191  34.898  49.661  0.00  0.00     0.168 C 
HETATM   30  C   UNK N   1      39.320  35.930  50.814  0.00  0.00     0.032 C 
ENDBRANCH  24  25
ENDBRANCH  22  24
ENDBRANCH   4  18
BRANCH   1  31
HETATM   31  C   UNK N   1      38.493  38.270  55.453  0.00  0.00     0.272 C 
HETATM   32  O   UNK N   1      38.460  37.148  55.938  0.00  0.00    -0.266 OA
HETATM   33  N   UNK N   1      37.327  39.017  55.385  0.00  0.00    -0.343 N 
HETATM   34  C   UNK N   1      37.280  40.432  55.017  0.00  0.00     0.152 C 
HETATM   35  C   UNK N   1      36.032  38.407  55.674  0.00  0.00     0.152 C 
HETATM   36  C   UNK N   1      36.442  41.178  56.068  0.00  0.00     0.187 C 
HETATM   37  O   UNK N   1      35.150  40.606  56.173  0.00  0.00    -0.388 OA
HETATM   38  C   UNK N   1      35.259  39.281  56.666  0.00  0.00     0.187 C 
ENDBRANCH   1  31
TORSDOF 4
ENDMDL
MODEL 6
REMARK VINA RESULT:      -7.7      5.130      9.196
REMARK  4 active torsions:
REMARK  status: ('A' for Active; 'I' for Inactive)
REMARK    1  A    between atoms: C_2  and  C_3 
REMARK       I    between atoms: C_2  and  N_33 
REMARK    2  A    between atoms: N_6  and  C_7 
REMARK    3  A    between atoms: N_11  and  C_12 
REMARK    4  A    between atoms: C_12  and  C_13 
ROOT
HETATM    1  C   UNK N   1      40.797  38.892  51.858  0.00  0.00     0.126 A 
HETATM    2  N   UNK N   1      40.525  39.027  53.161  0.00  0.00    -0.292 N 
ATOM      3  HN  UNK N   1      39.588  39.095  53.558  1.00  0.00     0.187 HD
HETATM    4  N   UNK N   1      41.648  39.059  53.859  0.00  0.00    -0.284 N 
HETATM    5  C   UNK N   1      42.704  39.004  52.999  0.00  0.00     0.074 A 
HETATM    6  C   UNK N   1      42.177  38.830  51.704  0.00  0.00     0.019 A 
HETATM    7  C   UNK N   1      42.931  38.615  50.418  0.00  0.00     0.191 C 
HETATM    8  S   UNK N   1      44.571  38.013  50.862  0.00  0.00     0.196 S 
HETATM    9  O   UNK N   1      45.594  38.249  49.741  0.00  0.00    -0.221 OA
HETATM   10  O   UNK N   1      44.549  36.479  50.965  0.00  0.00    -0.221 OA
HETATM   11  C   UNK N   1      45.138  38.673  52.397  0.00  0.00     0.141 A 
HETATM   12  N   UNK N   1      46.469  38.794  52.643  0.00  0.00    -0.356 N 
ATOM     13  HN  UNK N   1      47.137  38.440  51.959  1.00  0.00     0.166 HD
HETATM   14  C   UNK N   1      46.930  39.376  53.779  0.00  0.00     0.089 A 
HETATM   15  C   UNK N   1      46.031  39.894  54.708  0.00  0.00     0.018 A 
HETATM   16  C   UNK N   1      44.660  39.777  54.481  0.00  0.00     0.018 A 
HETATM   17  C   UNK N   1      44.179  39.128  53.324  0.00  0.00     0.031 A 
ENDROOT
BRANCH   4  18
HETATM   18  C   UNK N   1      41.578  39.057  55.329  0.00  0.00     0.137 C 
HETATM   19  C   UNK N   1      41.773  40.477  55.869  0.00  0.00     0.031 C 
HETATM   20  C   UNK N   1      41.693  40.500  57.408  0.00  0.00     0.032 C 
HETATM   21  C   UNK N   1      40.883  39.313  57.975  0.00  0.00     0.272 C 
HETATM   22  N   UNK N   1      39.740  38.949  57.124  0.00  0.00     0.090 N 
HETATM   23  C   UNK N   1      40.165  38.539  55.753  0.00  0.00     0.299 C 
BRANCH  22  24
HETATM   24  C   UNK N   1      38.667  39.972  57.102  0.00  0.00     0.277 C 
BRANCH  24  25
HETATM   25  C   UNK N   1      38.064  40.082  55.673  0.00  0.00     0.018 C 
HETATM   26  C   UNK N   1      36.543  39.761  55.684  0.00  0.00     0.032 C 
HETATM   27  C   UNK N   1      35.688  41.051  55.713  0.00  0.00     0.168 C 
HETATM   28  O   UNK N   1      36.273  42.044  56.529  0.00  0.00    -0.391 OA
HETATM   29  C   UNK N   1      37.514  42.512  55.983  0.00  0.00     0.168 C 
HETATM   30  C   UNK N   1      38.256  41.486  55.085  0.00  0.00     0.032 C 
ENDBRANCH  24  25
ENDBRANCH  22  24
ENDBRANCH   4  18
BRANCH   1  31
HETATM   31  C   UNK N   1      39.742  38.923  50.793  0.00  0.00     0.272 C 
HETATM   32  O   UNK N   1      39.799  39.829  49.974  0.00  0.00    -0.266 OA
HETATM   33  N   UNK N   1      38.654  38.065  50.785  0.00  0.00    -0.343 N 
HETATM   34  C   UNK N   1      38.573  36.835  51.574  0.00  0.00     0.152 C 
HETATM   35  C   UNK N   1      37.478  38.357  49.969  0.00  0.00     0.152 C 
HETATM   36  C   UNK N   1      38.138  35.691  50.645  0.00  0.00     0.187 C 
HETATM   37  O   UNK N   1      36.912  36.004  50.008  0.00  0.00    -0.388 OA
HETATM   38  C   UNK N   1      37.095  37.119  49.153  0.00  0.00     0.187 C 
ENDBRANCH   1  31
TORSDOF 4
ENDMDL
MODEL 7
REMARK VINA RESULT:      -7.6      3.865      9.015
REMARK  4 active torsions:
REMARK  status: ('A' for Active; 'I' for Inactive)
REMARK    1  A    between atoms: C_2  and  C_3 
REMARK       I    between atoms: C_2  and  N_33 
REMARK    2  A    between atoms: N_6  and  C_7 
REMARK    3  A    between atoms: N_11  and  C_12 
REMARK    4  A    between atoms: C_12  and  C_13 
ROOT
HETATM    1  C   UNK N   1      41.224  39.151  52.533  0.00  0.00     0.126 A 
HETATM    2  N   UNK N   1      39.995  38.623  52.545  0.00  0.00    -0.292 N 
ATOM      3  HN  UNK N   1      39.264  38.860  53.214  1.00  0.00     0.187 HD
HETATM    4  N   UNK N   1      39.867  37.749  51.560  0.00  0.00    -0.284 N 
HETATM    5  C   UNK N   1      41.058  37.641  50.907  0.00  0.00     0.074 A 
HETATM    6  C   UNK N   1      41.932  38.587  51.478  0.00  0.00     0.019 A 
HETATM    7  C   UNK N   1      43.333  38.932  51.047  0.00  0.00     0.191 C 
HETATM    8  S   UNK N   1      43.506  38.395  49.335  0.00  0.00     0.196 S 
HETATM    9  O   UNK N   1      44.977  38.194  48.940  0.00  0.00    -0.221 OA
HETATM   10  O   UNK N   1      43.067  39.526  48.391  0.00  0.00    -0.221 OA
HETATM   11  C   UNK N   1      42.545  36.959  48.980  0.00  0.00     0.141 A 
HETATM   12  N   UNK N   1      42.922  36.109  47.988  0.00  0.00    -0.356 N 
ATOM     13  HN  UNK N   1      43.728  36.343  47.409  1.00  0.00     0.166 HD
HETATM   14  C   UNK N   1      42.249  34.954  47.751  0.00  0.00     0.089 A 
HETATM   15  C   UNK N   1      41.166  34.603  48.553  0.00  0.00     0.018 A 
HETATM   16  C   UNK N   1      40.758  35.462  49.574  0.00  0.00     0.018 A 
HETATM   17  C   UNK N   1      41.426  36.685  49.790  0.00  0.00     0.031 A 
ENDROOT
BRANCH   4  18
HETATM   18  C   UNK N   1      38.546  37.155  51.299  0.00  0.00     0.137 C 
HETATM   19  C   UNK N   1      38.224  36.096  52.357  0.00  0.00     0.031 C 
HETATM   20  C   UNK N   1      36.839  35.468  52.108  0.00  0.00     0.032 C 
HETATM   21  C   UNK N   1      35.905  36.396  51.301  0.00  0.00     0.272 C 
HETATM   22  N   UNK N   1      36.085  37.816  51.642  0.00  0.00     0.090 N 
HETATM   23  C   UNK N   1      37.473  38.290  51.369  0.00  0.00     0.299 C 
BRANCH  22  24
HETATM   24  C   UNK N   1      35.628  38.159  53.010  0.00  0.00     0.277 C 
BRANCH  24  25
HETATM   25  C   UNK N   1      36.585  39.208  53.644  0.00  0.00     0.018 C 
HETATM   26  C   UNK N   1      35.844  40.549  53.911  0.00  0.00     0.032 C 
HETATM   27  C   UNK N   1      35.385  40.664  55.385  0.00  0.00     0.168 C 
HETATM   28  O   UNK N   1      34.939  39.422  55.888  0.00  0.00    -0.391 OA
HETATM   29  C   UNK N   1      36.009  38.472  55.975  0.00  0.00     0.168 C 
HETATM   30  C   UNK N   1      37.170  38.708  54.972  0.00  0.00     0.032 C 
ENDBRANCH  24  25
ENDBRANCH  22  24
ENDBRANCH   4  18
BRANCH   1  31
HETATM   31  C   UNK N   1      41.719  40.101  53.583  0.00  0.00     0.272 C 
HETATM   32  O   UNK N   1      42.179  41.167  53.202  0.00  0.00    -0.266 OA
HETATM   33  N   UNK N   1      41.798  39.765  54.925  0.00  0.00    -0.343 N 
HETATM   34  C   UNK N   1      41.110  38.622  55.527  0.00  0.00     0.152 C 
HETATM   35  C   UNK N   1      42.613  40.554  55.846  0.00  0.00     0.152 C 
HETATM   36  C   UNK N   1      40.368  39.110  56.782  0.00  0.00     0.187 C 
HETATM   37  O   UNK N   1      41.267  39.732  57.682  0.00  0.00    -0.388 OA
HETATM   38  C   UNK N   1      41.792  40.908  57.089  0.00  0.00     0.187 C 
ENDBRANCH   1  31
TORSDOF 4
ENDMDL
MODEL 8
REMARK VINA RESULT:      -7.5      2.348      7.361
REMARK  4 active torsions:
REMARK  status: ('A' for Active; 'I' for Inactive)
REMARK    1  A    between atoms: C_2  and  C_3 
REMARK       I    between atoms: C_2  and  N_33 
REMARK    2  A    between atoms: N_6  and  C_7 
REMARK    3  A    between atoms: N_11  and  C_12 
REMARK    4  A    between atoms: C_12  and  C_13 
ROOT
HETATM    1  C   UNK N   1      41.878  34.026  48.305  0.00  0.00     0.126 A 
HETATM    2  N   UNK N   1      40.549  33.918  48.415  0.00  0.00    -0.292 N 
ATOM      3  HN  UNK N   1      40.005  33.099  48.141  1.00  0.00     0.187 HD
HETATM    4  N   UNK N   1      40.043  35.025  48.931  0.00  0.00    -0.284 N 
HETATM    5  C   UNK N   1      41.049  35.925  49.118  0.00  0.00     0.074 A 
HETATM    6  C   UNK N   1      42.254  35.277  48.780  0.00  0.00     0.019 A 
HETATM    7  C   UNK N   1      43.658  35.807  48.907  0.00  0.00     0.191 C 
HETATM    8  S   UNK N   1      43.609  37.149  50.109  0.00  0.00     0.196 S 
HETATM    9  O   UNK N   1      44.802  38.104  49.955  0.00  0.00    -0.221 OA
HETATM   10  O   UNK N   1      43.824  36.586  51.523  0.00  0.00    -0.221 OA
HETATM   11  C   UNK N   1      42.078  38.026  50.078  0.00  0.00     0.141 A 
HETATM   12  N   UNK N   1      42.024  39.326  50.470  0.00  0.00    -0.356 N 
ATOM     13  HN  UNK N   1      42.862  39.770  50.844  1.00  0.00     0.166 HD
HETATM   14  C   UNK N   1      40.877  40.047  50.375  0.00  0.00     0.089 A 
HETATM   15  C   UNK N   1      39.733  39.465  49.836  0.00  0.00     0.018 A 
HETATM   16  C   UNK N   1      39.763  38.130  49.432  0.00  0.00     0.018 A 
HETATM   17  C   UNK N   1      40.940  37.365  49.575  0.00  0.00     0.031 A 
ENDROOT
BRANCH   4  18
HETATM   18  C   UNK N   1      38.613  35.067  49.274  0.00  0.00     0.137 C 
HETATM   19  C   UNK N   1      37.832  34.075  48.406  0.00  0.00     0.031 C 
HETATM   20  C   UNK N   1      36.332  34.095  48.757  0.00  0.00     0.032 C 
HETATM   21  C   UNK N   1      36.066  34.595  50.194  0.00  0.00     0.272 C 
HETATM   22  N   UNK N   1      37.100  34.159  51.145  0.00  0.00     0.090 N 
HETATM   23  C   UNK N   1      38.456  34.665  50.777  0.00  0.00     0.299 C 
BRANCH  22  24
HETATM   24  C   UNK N   1      37.091  32.699  51.403  0.00  0.00     0.277 C 
BRANCH  24  25
HETATM   25  C   UNK N   1      36.015  32.354  52.471  0.00  0.00     0.018 C 
HETATM   26  C   UNK N   1      35.875  30.815  52.644  0.00  0.00     0.032 C 
HETATM   27  C   UNK N   1      36.678  30.303  53.864  0.00  0.00     0.168 C 
HETATM   28  O   UNK N   1      37.906  30.987  54.002  0.00  0.00    -0.391 OA
HETATM   29  C   UNK N   1      37.707  32.369  54.326  0.00  0.00     0.168 C 
HETATM   30  C   UNK N   1      36.359  32.963  53.837  0.00  0.00     0.032 C 
ENDBRANCH  24  25
ENDBRANCH  22  24
ENDBRANCH   4  18
BRANCH   1  31
HETATM   31  C   UNK N   1      42.736  32.978  47.662  0.00  0.00     0.272 C 
HETATM   32  O   UNK N   1      43.250  32.146  48.396  0.00  0.00    -0.266 OA
HETATM   33  N   UNK N   1      43.071  32.999  46.318  0.00  0.00    -0.343 N 
HETATM   34  C   UNK N   1      42.379  33.806  45.312  0.00  0.00     0.152 C 
HETATM   35  C   UNK N   1      44.184  32.200  45.812  0.00  0.00     0.152 C 
HETATM   36  C   UNK N   1      42.026  32.899  44.122  0.00  0.00     0.187 C 
HETATM   37  O   UNK N   1      43.191  32.279  43.606  0.00  0.00    -0.388 OA
HETATM   38  C   UNK N   1      43.733  31.406  44.583  0.00  0.00     0.187 C 
ENDBRANCH   1  31
TORSDOF 4
ENDMDL
MODEL 9
REMARK VINA RESULT:      -7.5      4.597      8.718
REMARK  4 active torsions:
REMARK  status: ('A' for Active; 'I' for Inactive)
REMARK    1  A    between atoms: C_2  and  C_3 
REMARK       I    between atoms: C_2  and  N_33 
REMARK    2  A    between atoms: N_6  and  C_7 
REMARK    3  A    between atoms: N_11  and  C_12 
REMARK    4  A    between atoms: C_12  and  C_13 
ROOT
HETATM    1  C   UNK N   1      40.395  32.786  42.868  0.00  0.00     0.126 A 
HETATM    2  N   UNK N   1      39.198  32.760  43.466  0.00  0.00    -0.292 N 
ATOM      3  HN  UNK N   1      38.307  32.645  42.985  1.00  0.00     0.187 HD
HETATM    4  N   UNK N   1      39.340  32.903  44.773  0.00  0.00    -0.284 N 
HETATM    5  C   UNK N   1      40.660  33.091  45.057  0.00  0.00     0.074 A 
HETATM    6  C   UNK N   1      41.368  32.954  43.846  0.00  0.00     0.019 A 
HETATM    7  C   UNK N   1      42.859  32.975  43.637  0.00  0.00     0.191 C 
HETATM    8  S   UNK N   1      43.620  32.598  45.228  0.00  0.00     0.196 S 
HETATM    9  O   UNK N   1      45.073  33.090  45.303  0.00  0.00    -0.221 OA
HETATM   10  O   UNK N   1      43.784  31.076  45.375  0.00  0.00    -0.221 OA
HETATM   11  C   UNK N   1      42.669  33.197  46.588  0.00  0.00     0.141 A 
HETATM   12  N   UNK N   1      43.273  33.501  47.767  0.00  0.00    -0.356 N 
ATOM     13  HN  UNK N   1      44.270  33.318  47.879  1.00  0.00     0.166 HD
HETATM   14  C   UNK N   1      42.579  34.043  48.800  0.00  0.00     0.089 A 
HETATM   15  C   UNK N   1      41.224  34.329  48.652  0.00  0.00     0.018 A 
HETATM   16  C   UNK N   1      40.581  34.021  47.453  0.00  0.00     0.018 A 
HETATM   17  C   UNK N   1      41.290  33.412  46.397  0.00  0.00     0.031 A 
ENDROOT
BRANCH   4  18
HETATM   18  C   UNK N   1      38.161  32.758  45.641  0.00  0.00     0.137 C 
HETATM   19  C   UNK N   1      37.106  33.808  45.280  0.00  0.00     0.031 C 
HETATM   20  C   UNK N   1      35.857  33.668  46.171  0.00  0.00     0.032 C 
HETATM   21  C   UNK N   1      35.698  32.243  46.746  0.00  0.00     0.272 C 
HETATM   22  N   UNK N   1      36.122  31.199  45.800  0.00  0.00     0.090 N 
HETATM   23  C   UNK N   1      37.560  31.332  45.420  0.00  0.00     0.299 C 
BRANCH  22  24
HETATM   24  C   UNK N   1      35.234  31.073  44.620  0.00  0.00     0.277 C 
BRANCH  24  25
HETATM   25  C   UNK N   1      34.683  29.622  44.520  0.00  0.00     0.018 C 
HETATM   26  C   UNK N   1      34.632  28.948  45.920  0.00  0.00     0.032 C 
HETATM   27  C   UNK N   1      33.213  29.019  46.536  0.00  0.00     0.168 C 
HETATM   28  O   UNK N   1      32.584  30.251  46.249  0.00  0.00    -0.391 OA
HETATM   29  C   UNK N   1      32.315  30.392  44.848  0.00  0.00     0.168 C 
HETATM   30  C   UNK N   1      33.271  29.595  43.920  0.00  0.00     0.032 C 
ENDBRANCH  24  25
ENDBRANCH  22  24
ENDBRANCH   4  18
BRANCH   1  31
HETATM   31  C   UNK N   1      40.568  32.748  41.379  0.00  0.00     0.272 C 
HETATM   32  O   UNK N   1      40.825  31.666  40.872  0.00  0.00    -0.266 OA
HETATM   33  N   UNK N   1      40.583  33.890  40.594  0.00  0.00    -0.343 N 
HETATM   34  C   UNK N   1      40.100  35.198  41.038  0.00  0.00     0.152 C 
HETATM   35  C   UNK N   1      41.116  33.854  39.234  0.00  0.00     0.152 C 
HETATM   36  C   UNK N   1      39.151  35.753  39.964  0.00  0.00     0.187 C 
HETATM   37  O   UNK N   1      39.802  35.818  38.708  0.00  0.00    -0.388 OA
HETATM   38  C   UNK N   1      40.119  34.507  38.272  0.00  0.00     0.187 C 
ENDBRANCH   1  31
TORSDOF 4
ENDMDL
