MODEL 1
REMARK VINA RESULT:      -8.0      0.000      0.000
REMARK  5 active torsions:
REMARK  status: ('A' for Active; 'I' for Inactive)
REMARK    1  A    between atoms: C_2  and  C_3 
REMARK       I    between atoms: C_2  and  N_34 
REMARK    2  A    between atoms: N_6  and  C_7 
REMARK    3  A    between atoms: N_11  and  C_12 
REMARK    4  A    between atoms: C_12  and  C_13 
REMARK    5  A    between atoms: C_13  and  N_14 
ROOT
HETATM    1  C   UNK N   1      41.045  40.653  56.182  0.00  0.00     0.126 A 
HETATM    2  N   UNK N   1      42.282  40.716  55.654  0.00  0.00    -0.292 N 
ATOM      3  HN  UNK N   1      43.119  41.031  56.146  1.00  0.00     0.187 HD
HETATM    4  N   UNK N   1      42.241  40.302  54.393  0.00  0.00    -0.284 N 
HETATM    5  C   UNK N   1      40.956  39.978  54.070  0.00  0.00     0.072 A 
HETATM    6  C   UNK N   1      40.174  40.176  55.214  0.00  0.00     0.019 A 
HETATM    7  C   UNK N   1      38.714  39.854  55.396  0.00  0.00     0.189 C 
HETATM    8  S   UNK N   1      38.329  38.538  54.232  0.00  0.00     0.180 S 
HETATM    9  O   UNK N   1      36.816  38.429  53.993  0.00  0.00    -0.222 OA
HETATM   10  O   UNK N   1      38.674  37.169  54.841  0.00  0.00    -0.222 OA
HETATM   11  C   UNK N   1      39.212  38.753  52.712  0.00  0.00     0.075 A 
HETATM   12  C   UNK N   1      38.696  38.256  51.511  0.00  0.00     0.066 A 
HETATM   13  C   UNK N   1      39.369  38.492  50.315  0.00  0.00     0.117 A 
HETATM   14  F   UNK N   1      38.867  38.019  49.147  0.00  0.00    -0.206 F 
HETATM   15  C   UNK N   1      40.546  39.240  50.315  0.00  0.00     0.043 A 
HETATM   16  C   UNK N   1      41.071  39.730  51.514  0.00  0.00     0.018 A 
HETATM   17  C   UNK N   1      40.428  39.471  52.743  0.00  0.00     0.015 A 
ENDROOT
BRANCH   4  18
HETATM   18  C   UNK N   1      43.471  40.118  53.601  0.00  0.00     0.137 C 
HETATM   19  C   UNK N   1      44.632  40.988  54.150  0.00  0.00     0.031 C 
HETATM   20  C   UNK N   1      45.640  40.131  54.909  0.00  0.00     0.032 C 
HETATM   21  C   UNK N   1      46.240  39.103  53.914  0.00  0.00     0.272 C 
HETATM   22  N   UNK N   1      45.221  38.407  53.071  0.00  0.00     0.092 N 
HETATM   23  C   UNK N   1      43.843  38.612  53.550  0.00  0.00     0.299 C 
BRANCH  22  24
HETATM   24  C   UNK N   1      45.353  38.676  51.621  0.00  0.00     0.302 C 
BRANCH  24  25
HETATM   25  C   UNK N   1      45.502  37.363  50.838  0.00  0.00     0.302 C 
BRANCH  25  26
HETATM   26  N   UNK N   1      44.682  37.369  49.608  0.00  0.00     0.094 N 
HETATM   27  C   UNK N   1      43.486  36.508  49.710  0.00  0.00     0.298 C 
HETATM   28  C   UNK N   1      42.697  36.581  48.397  0.00  0.00     0.198 C 
HETATM   29  O   UNK N   1      42.303  37.913  48.125  0.00  0.00    -0.388 OA
HETATM   30  C   UNK N   1      43.454  38.722  47.972  0.00  0.00     0.198 C 
HETATM   31  C   UNK N   1      44.271  38.743  49.268  0.00  0.00     0.298 C 
ENDBRANCH  25  26
ENDBRANCH  24  25
ENDBRANCH  22  24
ENDBRANCH   4  18
BRANCH   1  32
HETATM   32  C   UNK N   1      40.683  41.024  57.586  0.00  0.00     0.272 C 
HETATM   33  O   UNK N   1      40.607  42.216  57.852  0.00  0.00    -0.266 OA
HETATM   34  N   UNK N   1      40.397  40.100  58.571  0.00  0.00    -0.343 N 
HETATM   35  C   UNK N   1      39.992  40.607  59.889  0.00  0.00     0.152 C 
HETATM   36  C   UNK N   1      40.276  38.670  58.247  0.00  0.00     0.152 C 
HETATM   37  C   UNK N   1      39.688  39.507  60.904  0.00  0.00     0.187 C 
HETATM   38  O   UNK N   1      38.967  38.464  60.282  0.00  0.00    -0.388 OA
HETATM   39  C   UNK N   1      39.881  37.792  59.442  0.00  0.00     0.187 C 
ENDBRANCH   1  32
TORSDOF 5
ENDMDL
MODEL 2
REMARK VINA RESULT:      -7.9      4.619      8.879
REMARK  5 active torsions:
REMARK  status: ('A' for Active; 'I' for Inactive)
REMARK    1  A    between atoms: C_2  and  C_3 
REMARK       I    between atoms: C_2  and  N_34 
REMARK    2  A    between atoms: N_6  and  C_7 
REMARK    3  A    between atoms: N_11  and  C_12 
REMARK    4  A    between atoms: C_12  and  C_13 
REMARK    5  A    between atoms: C_13  and  N_14 
ROOT
HETATM    1  C   UNK N   1      38.058  34.716  49.893  0.00  0.00     0.126 A 
HETATM    2  N   UNK N   1      37.575  35.643  50.741  0.00  0.00    -0.292 N 
ATOM      3  HN  UNK N   1      36.720  35.553  51.289  1.00  0.00     0.187 HD
HETATM    4  N   UNK N   1      38.390  36.692  50.752  0.00  0.00    -0.284 N 
HETATM    5  C   UNK N   1      39.418  36.468  49.884  0.00  0.00     0.072 A 
HETATM    6  C   UNK N   1      39.235  35.193  49.338  0.00  0.00     0.019 A 
HETATM    7  C   UNK N   1      40.162  34.447  48.413  0.00  0.00     0.189 C 
HETATM    8  S   UNK N   1      41.813  35.095  48.709  0.00  0.00     0.180 S 
HETATM    9  O   UNK N   1      42.761  34.762  47.547  0.00  0.00    -0.222 OA
HETATM   10  O   UNK N   1      42.466  34.370  49.896  0.00  0.00    -0.222 OA
HETATM   11  C   UNK N   1      41.767  36.838  49.027  0.00  0.00     0.075 A 
HETATM   12  C   UNK N   1      42.866  37.647  48.724  0.00  0.00     0.066 A 
HETATM   13  C   UNK N   1      42.789  39.025  48.918  0.00  0.00     0.117 A 
HETATM   14  F   UNK N   1      43.850  39.814  48.617  0.00  0.00    -0.206 F 
HETATM   15  C   UNK N   1      41.610  39.594  49.395  0.00  0.00     0.043 A 
HETATM   16  C   UNK N   1      40.512  38.789  49.709  0.00  0.00     0.018 A 
HETATM   17  C   UNK N   1      40.579  37.386  49.557  0.00  0.00     0.015 A 
ENDROOT
BRANCH   4  18
HETATM   18  C   UNK N   1      38.201  37.806  51.699  0.00  0.00     0.137 C 
HETATM   19  C   UNK N   1      36.937  38.634  51.351  0.00  0.00     0.031 C 
HETATM   20  C   UNK N   1      35.803  38.330  52.325  0.00  0.00     0.032 C 
HETATM   21  C   UNK N   1      36.269  38.739  53.746  0.00  0.00     0.272 C 
HETATM   22  N   UNK N   1      37.643  38.263  54.097  0.00  0.00     0.092 N 
HETATM   23  C   UNK N   1      38.160  37.259  53.152  0.00  0.00     0.299 C 
BRANCH  22  24
HETATM   24  C   UNK N   1      38.614  39.354  54.340  0.00  0.00     0.302 C 
BRANCH  24  25
HETATM   25  C   UNK N   1      39.669  38.920  55.368  0.00  0.00     0.302 C 
BRANCH  25  26
HETATM   26  N   UNK N   1      41.036  39.004  54.812  0.00  0.00     0.094 N 
HETATM   27  C   UNK N   1      41.079  39.656  53.488  0.00  0.00     0.298 C 
HETATM   28  C   UNK N   1      42.531  39.705  52.996  0.00  0.00     0.198 C 
HETATM   29  O   UNK N   1      43.343  40.422  53.906  0.00  0.00    -0.388 OA
HETATM   30  C   UNK N   1      43.344  39.761  55.158  0.00  0.00     0.198 C 
HETATM   31  C   UNK N   1      41.927  39.720  55.743  0.00  0.00     0.298 C 
ENDBRANCH  25  26
ENDBRANCH  24  25
ENDBRANCH  22  24
ENDBRANCH   4  18
BRANCH   1  32
HETATM   32  C   UNK N   1      37.429  33.386  49.614  0.00  0.00     0.272 C 
HETATM   33  O   UNK N   1      37.468  32.546  50.504  0.00  0.00    -0.266 OA
HETATM   34  N   UNK N   1      36.782  33.080  48.434  0.00  0.00    -0.343 N 
HETATM   35  C   UNK N   1      36.152  31.757  48.321  0.00  0.00     0.152 C 
HETATM   36  C   UNK N   1      36.533  34.118  47.422  0.00  0.00     0.152 C 
HETATM   37  C   UNK N   1      35.455  31.520  46.983  0.00  0.00     0.187 C 
HETATM   38  O   UNK N   1      34.759  32.684  46.589  0.00  0.00    -0.388 OA
HETATM   39  C   UNK N   1      35.739  33.625  46.206  0.00  0.00     0.187 C 
ENDBRANCH   1  32
TORSDOF 5
ENDMDL
MODEL 3
REMARK VINA RESULT:      -7.9      1.392      1.927
REMARK  5 active torsions:
REMARK  status: ('A' for Active; 'I' for Inactive)
REMARK    1  A    between atoms: C_2  and  C_3 
REMARK       I    between atoms: C_2  and  N_34 
REMARK    2  A    between atoms: N_6  and  C_7 
REMARK    3  A    between atoms: N_11  and  C_12 
REMARK    4  A    between atoms: C_12  and  C_13 
REMARK    5  A    between atoms: C_13  and  N_14 
ROOT
HETATM    1  C   UNK N   1      41.366  40.401  56.945  0.00  0.00     0.126 A 
HETATM    2  N   UNK N   1      42.479  40.554  56.203  0.00  0.00    -0.292 N 
ATOM      3  HN  UNK N   1      43.363  40.937  56.537  1.00  0.00     0.187 HD
HETATM    4  N   UNK N   1      42.243  40.126  54.968  0.00  0.00    -0.284 N 
HETATM    5  C   UNK N   1      40.949  39.701  54.882  0.00  0.00     0.072 A 
HETATM    6  C   UNK N   1      40.374  39.849  56.149  0.00  0.00     0.019 A 
HETATM    7  C   UNK N   1      39.000  39.418  56.591  0.00  0.00     0.189 C 
HETATM    8  S   UNK N   1      38.514  38.065  55.510  0.00  0.00     0.180 S 
HETATM    9  O   UNK N   1      36.996  37.837  55.547  0.00  0.00    -0.222 OA
HETATM   10  O   UNK N   1      39.069  36.733  56.042  0.00  0.00    -0.222 OA
HETATM   11  C   UNK N   1      39.089  38.332  53.856  0.00  0.00     0.075 A 
HETATM   12  C   UNK N   1      38.405  37.784  52.767  0.00  0.00     0.066 A 
HETATM   13  C   UNK N   1      38.831  38.059  51.469  0.00  0.00     0.117 A 
HETATM   14  F   UNK N   1      38.164  37.537  50.410  0.00  0.00    -0.206 F 
HETATM   15  C   UNK N   1      39.927  38.894  51.259  0.00  0.00     0.043 A 
HETATM   16  C   UNK N   1      40.620  39.436  52.345  0.00  0.00     0.018 A 
HETATM   17  C   UNK N   1      40.231  39.141  53.670  0.00  0.00     0.015 A 
ENDROOT
BRANCH   4  18
HETATM   18  C   UNK N   1      43.320  40.029  53.966  0.00  0.00     0.137 C 
HETATM   19  C   UNK N   1      44.505  40.965  54.319  0.00  0.00     0.031 C 
HETATM   20  C   UNK N   1      45.683  40.166  54.867  0.00  0.00     0.032 C 
HETATM   21  C   UNK N   1      46.157  39.190  53.760  0.00  0.00     0.272 C 
HETATM   22  N   UNK N   1      45.047  38.438  53.096  0.00  0.00     0.092 N 
HETATM   23  C   UNK N   1      43.768  38.550  53.818  0.00  0.00     0.299 C 
BRANCH  22  24
HETATM   24  C   UNK N   1      44.902  38.730  51.653  0.00  0.00     0.302 C 
BRANCH  24  25
HETATM   25  C   UNK N   1      45.129  37.461  50.818  0.00  0.00     0.302 C 
BRANCH  25  26
HETATM   26  N   UNK N   1      44.143  37.347  49.722  0.00  0.00     0.094 N 
HETATM   27  C   UNK N   1      42.863  36.756  50.160  0.00  0.00     0.298 C 
HETATM   28  C   UNK N   1      41.905  36.684  48.965  0.00  0.00     0.198 C 
HETATM   29  O   UNK N   1      41.675  37.974  48.431  0.00  0.00    -0.388 OA
HETATM   30  C   UNK N   1      42.897  38.514  47.961  0.00  0.00     0.198 C 
HETATM   31  C   UNK N   1      43.894  38.667  49.115  0.00  0.00     0.298 C 
ENDBRANCH  25  26
ENDBRANCH  24  25
ENDBRANCH  22  24
ENDBRANCH   4  18
BRANCH   1  32
HETATM   32  C   UNK N   1      41.235  40.758  58.393  0.00  0.00     0.272 C 
HETATM   33  O   UNK N   1      41.931  40.142  59.190  0.00  0.00    -0.266 OA
HETATM   34  N   UNK N   1      40.409  41.760  58.862  0.00  0.00    -0.343 N 
HETATM   35  C   UNK N   1      40.430  42.046  60.303  0.00  0.00     0.152 C 
HETATM   36  C   UNK N   1      39.714  42.658  57.927  0.00  0.00     0.152 C 
HETATM   37  C   UNK N   1      39.490  43.177  60.718  0.00  0.00     0.187 C 
HETATM   38  O   UNK N   1      39.553  44.226  59.775  0.00  0.00    -0.388 OA
HETATM   39  C   UNK N   1      38.897  43.761  58.614  0.00  0.00     0.187 C 
ENDBRANCH   1  32
TORSDOF 5
ENDMDL
MODEL 4
REMARK VINA RESULT:      -7.8      3.242      8.406
REMARK  5 active torsions:
REMARK  status: ('A' for Active; 'I' for Inactive)
REMARK    1  A    between atoms: C_2  and  C_3 
REMARK       I    between atoms: C_2  and  N_34 
REMARK    2  A    between atoms: N_6  and  C_7 
REMARK    3  A    between atoms: N_11  and  C_12 
REMARK    4  A    between atoms: C_12  and  C_13 
REMARK    5  A    between atoms: C_13  and  N_14 
ROOT
HETATM    1  C   UNK N   1      39.114  38.453  51.921  0.00  0.00     0.126 A 
HETATM    2  N   UNK N   1      38.617  38.523  53.171  0.00  0.00    -0.292 N 
ATOM      3  HN  UNK N   1      37.645  38.354  53.430  1.00  0.00     0.187 HD
HETATM    4  N   UNK N   1      39.593  38.845  54.012  0.00  0.00    -0.284 N 
HETATM    5  C   UNK N   1      40.751  39.011  53.310  0.00  0.00     0.072 A 
HETATM    6  C   UNK N   1      40.469  38.742  51.966  0.00  0.00     0.019 A 
HETATM    7  C   UNK N   1      41.441  38.684  50.817  0.00  0.00     0.189 C 
HETATM    8  S   UNK N   1      43.046  38.279  51.521  0.00  0.00     0.180 S 
HETATM    9  O   UNK N   1      44.186  38.627  50.553  0.00  0.00    -0.222 OA
HETATM   10  O   UNK N   1      43.190  36.756  51.679  0.00  0.00    -0.222 OA
HETATM   11  C   UNK N   1      43.268  39.065  53.093  0.00  0.00     0.075 A 
HETATM   12  C   UNK N   1      44.549  39.385  53.555  0.00  0.00     0.066 A 
HETATM   13  C   UNK N   1      44.703  40.063  54.762  0.00  0.00     0.117 A 
HETATM   14  F   UNK N   1      45.943  40.383  55.208  0.00  0.00    -0.206 F 
HETATM   15  C   UNK N   1      43.580  40.438  55.497  0.00  0.00     0.043 A 
HETATM   16  C   UNK N   1      42.298  40.112  55.045  0.00  0.00     0.018 A 
HETATM   17  C   UNK N   1      42.118  39.391  53.844  0.00  0.00     0.015 A 
ENDROOT
BRANCH   4  18
HETATM   18  C   UNK N   1      39.384  38.850  55.471  0.00  0.00     0.137 C 
HETATM   19  C   UNK N   1      38.485  40.035  55.909  0.00  0.00     0.031 C 
HETATM   20  C   UNK N   1      37.080  39.553  56.255  0.00  0.00     0.032 C 
HETATM   21  C   UNK N   1      37.192  38.569  57.449  0.00  0.00     0.272 C 
HETATM   22  N   UNK N   1      38.268  37.543  57.293  0.00  0.00     0.092 N 
HETATM   23  C   UNK N   1      38.807  37.481  55.924  0.00  0.00     0.299 C 
BRANCH  22  24
HETATM   24  C   UNK N   1      39.339  37.635  58.311  0.00  0.00     0.302 C 
BRANCH  24  25
HETATM   25  C   UNK N   1      38.921  38.574  59.452  0.00  0.00     0.302 C 
BRANCH  25  26
HETATM   26  N   UNK N   1      39.750  39.798  59.481  0.00  0.00     0.094 N 
HETATM   27  C   UNK N   1      40.067  40.245  60.853  0.00  0.00     0.298 C 
HETATM   28  C   UNK N   1      40.931  41.510  60.785  0.00  0.00     0.198 C 
HETATM   29  O   UNK N   1      42.131  41.257  60.078  0.00  0.00    -0.388 OA
HETATM   30  C   UNK N   1      41.824  40.883  58.748  0.00  0.00     0.198 C 
HETATM   31  C   UNK N   1      41.002  39.589  58.731  0.00  0.00     0.298 C 
ENDBRANCH  25  26
ENDBRANCH  24  25
ENDBRANCH  22  24
ENDBRANCH   4  18
BRANCH   1  32
HETATM   32  C   UNK N   1      38.328  38.105  50.695  0.00  0.00     0.272 C 
HETATM   33  O   UNK N   1      38.110  39.003  49.892  0.00  0.00    -0.266 OA
HETATM   34  N   UNK N   1      37.878  36.831  50.413  0.00  0.00    -0.343 N 
HETATM   35  C   UNK N   1      37.174  36.620  49.140  0.00  0.00     0.152 C 
HETATM   36  C   UNK N   1      38.289  35.688  51.242  0.00  0.00     0.152 C 
HETATM   37  C   UNK N   1      36.726  35.177  48.917  0.00  0.00     0.187 C 
HETATM   38  O   UNK N   1      37.741  34.288  49.335  0.00  0.00    -0.388 OA
HETATM   39  C   UNK N   1      37.760  34.336  50.746  0.00  0.00     0.187 C 
ENDBRANCH   1  32
TORSDOF 5
ENDMDL
MODEL 5
REMARK VINA RESULT:      -7.7      3.679      8.731
REMARK  5 active torsions:
REMARK  status: ('A' for Active; 'I' for Inactive)
REMARK    1  A    between atoms: C_2  and  C_3 
REMARK       I    between atoms: C_2  and  N_34 
REMARK    2  A    between atoms: N_6  and  C_7 
REMARK    3  A    between atoms: N_11  and  C_12 
REMARK    4  A    between atoms: C_12  and  C_13 
REMARK    5  A    between atoms: C_13  and  N_14 
ROOT
HETATM    1  C   UNK N   1      37.987  38.319  50.384  0.00  0.00     0.126 A 
HETATM    2  N   UNK N   1      37.530  38.217  51.646  0.00  0.00    -0.292 N 
ATOM      3  HN  UNK N   1      36.566  38.016  51.910  1.00  0.00     0.187 HD
HETATM    4  N   UNK N   1      38.534  38.418  52.492  0.00  0.00    -0.284 N 
HETATM    5  C   UNK N   1      39.670  38.677  51.784  0.00  0.00     0.072 A 
HETATM    6  C   UNK N   1      39.345  38.597  50.425  0.00  0.00     0.019 A 
HETATM    7  C   UNK N   1      40.280  38.697  49.248  0.00  0.00     0.189 C 
HETATM    8  S   UNK N   1      41.903  38.195  49.839  0.00  0.00     0.180 S 
HETATM    9  O   UNK N   1      43.014  38.672  48.892  0.00  0.00    -0.222 OA
HETATM   10  O   UNK N   1      42.043  36.666  49.780  0.00  0.00    -0.222 OA
HETATM   11  C   UNK N   1      42.180  38.756  51.496  0.00  0.00     0.075 A 
HETATM   12  C   UNK N   1      43.476  39.007  51.957  0.00  0.00     0.066 A 
HETATM   13  C   UNK N   1      43.672  39.511  53.241  0.00  0.00     0.117 A 
HETATM   14  F   UNK N   1      44.927  39.764  53.687  0.00  0.00    -0.206 F 
HETATM   15  C   UNK N   1      42.574  39.783  54.056  0.00  0.00     0.043 A 
HETATM   16  C   UNK N   1      41.277  39.525  53.604  0.00  0.00     0.018 A 
HETATM   17  C   UNK N   1      41.056  38.977  52.321  0.00  0.00     0.015 A 
ENDROOT
BRANCH   4  18
HETATM   18  C   UNK N   1      38.371  38.221  53.944  0.00  0.00     0.137 C 
HETATM   19  C   UNK N   1      37.511  39.347  54.574  0.00  0.00     0.031 C 
HETATM   20  C   UNK N   1      36.107  38.844  54.896  0.00  0.00     0.032 C 
HETATM   21  C   UNK N   1      36.236  37.701  55.936  0.00  0.00     0.272 C 
HETATM   22  N   UNK N   1      37.285  36.689  55.602  0.00  0.00     0.092 N 
HETATM   23  C   UNK N   1      37.780  36.812  54.220  0.00  0.00     0.299 C 
BRANCH  22  24
HETATM   24  C   UNK N   1      38.389  36.620  56.586  0.00  0.00     0.302 C 
BRANCH  24  25
HETATM   25  C   UNK N   1      38.001  37.341  57.886  0.00  0.00     0.302 C 
BRANCH  25  26
HETATM   26  N   UNK N   1      38.836  38.539  58.114  0.00  0.00     0.094 N 
HETATM   27  C   UNK N   1      39.195  38.727  59.534  0.00  0.00     0.298 C 
HETATM   28  C   UNK N   1      40.064  39.983  59.673  0.00  0.00     0.198 C 
HETATM   29  O   UNK N   1      41.241  39.866  58.896  0.00  0.00    -0.388 OA
HETATM   30  C   UNK N   1      40.892  39.742  57.530  0.00  0.00     0.198 C 
HETATM   31  C   UNK N   1      40.064  38.473  57.300  0.00  0.00     0.298 C 
ENDBRANCH  25  26
ENDBRANCH  24  25
ENDBRANCH  22  24
ENDBRANCH   4  18
BRANCH   1  32
HETATM   32  C   UNK N   1      37.161  38.146  49.147  0.00  0.00     0.272 C 
HETATM   33  O   UNK N   1      37.063  37.015  48.690  0.00  0.00    -0.266 OA
HETATM   34  N   UNK N   1      36.484  39.178  48.530  0.00  0.00    -0.343 N 
HETATM   35  C   UNK N   1      35.657  38.852  47.360  0.00  0.00     0.152 C 
HETATM   36  C   UNK N   1      36.407  40.506  49.157  0.00  0.00     0.152 C 
HETATM   37  C   UNK N   1      34.942  40.060  46.756  0.00  0.00     0.187 C 
HETATM   38  O   UNK N   1      34.438  40.884  47.786  0.00  0.00    -0.388 OA
HETATM   39  C   UNK N   1      35.555  41.516  48.376  0.00  0.00     0.187 C 
ENDBRANCH   1  32
TORSDOF 5
ENDMDL
MODEL 6
REMARK VINA RESULT:      -7.6      5.124      8.099
REMARK  5 active torsions:
REMARK  status: ('A' for Active; 'I' for Inactive)
REMARK    1  A    between atoms: C_2  and  C_3 
REMARK       I    between atoms: C_2  and  N_34 
REMARK    2  A    between atoms: N_6  and  C_7 
REMARK    3  A    between atoms: N_11  and  C_12 
REMARK    4  A    between atoms: C_12  and  C_13 
REMARK    5  A    between atoms: C_13  and  N_14 
ROOT
HETATM    1  C   UNK N   1      38.080  34.582  49.859  0.00  0.00     0.126 A 
HETATM    2  N   UNK N   1      39.018  34.168  48.987  0.00  0.00    -0.292 N 
ATOM      3  HN  UNK N   1      38.915  33.391  48.333  1.00  0.00     0.187 HD
HETATM    4  N   UNK N   1      40.098  34.930  49.112  0.00  0.00    -0.284 N 
HETATM    5  C   UNK N   1      39.883  35.852  50.094  0.00  0.00     0.072 A 
HETATM    6  C   UNK N   1      38.582  35.659  50.573  0.00  0.00     0.019 A 
HETATM    7  C   UNK N   1      37.840  36.496  51.583  0.00  0.00     0.189 C 
HETATM    8  S   UNK N   1      38.564  38.141  51.517  0.00  0.00     0.180 S 
HETATM    9  O   UNK N   1      38.226  38.951  52.777  0.00  0.00    -0.222 OA
HETATM   10  O   UNK N   1      37.910  38.967  50.398  0.00  0.00    -0.222 OA
HETATM   11  C   UNK N   1      40.314  38.057  51.250  0.00  0.00     0.075 A 
HETATM   12  C   UNK N   1      41.155  39.074  51.714  0.00  0.00     0.066 A 
HETATM   13  C   UNK N   1      42.534  38.961  51.556  0.00  0.00     0.117 A 
HETATM   14  F   UNK N   1      43.353  39.941  52.013  0.00  0.00    -0.206 F 
HETATM   15  C   UNK N   1      43.074  37.826  50.953  0.00  0.00     0.043 A 
HETATM   16  C   UNK N   1      42.237  36.812  50.479  0.00  0.00     0.018 A 
HETATM   17  C   UNK N   1      40.834  36.921  50.593  0.00  0.00     0.015 A 
ENDROOT
BRANCH   4  18
HETATM   18  C   UNK N   1      41.238  34.811  48.185  0.00  0.00     0.137 C 
HETATM   19  C   UNK N   1      42.529  34.382  48.929  0.00  0.00     0.031 C 
HETATM   20  C   UNK N   1      42.852  32.916  48.655  0.00  0.00     0.032 C 
HETATM   21  C   UNK N   1      43.101  32.757  47.132  0.00  0.00     0.272 C 
HETATM   22  N   UNK N   1      42.071  33.422  46.275  0.00  0.00     0.092 N 
HETATM   23  C   UNK N   1      40.877  33.837  47.031  0.00  0.00     0.299 C 
BRANCH  22  24
HETATM   24  C   UNK N   1      42.605  34.515  45.431  0.00  0.00     0.302 C 
BRANCH  24  25
HETATM   25  C   UNK N   1      42.173  34.330  43.969  0.00  0.00     0.302 C 
BRANCH  25  26
HETATM   26  N   UNK N   1      40.823  34.880  43.727  0.00  0.00     0.094 N 
HETATM   27  C   UNK N   1      40.798  35.892  42.652  0.00  0.00     0.298 C 
HETATM   28  C   UNK N   1      39.363  36.399  42.468  0.00  0.00     0.198 C 
HETATM   29  O   UNK N   1      38.494  35.331  42.137  0.00  0.00    -0.388 OA
HETATM   30  C   UNK N   1      38.478  34.392  43.196  0.00  0.00     0.198 C 
HETATM   31  C   UNK N   1      39.876  33.797  43.406  0.00  0.00     0.298 C 
ENDBRANCH  25  26
ENDBRANCH  24  25
ENDBRANCH  22  24
ENDBRANCH   4  18
BRANCH   1  32
HETATM   32  C   UNK N   1      36.717  33.982  50.015  0.00  0.00     0.272 C 
HETATM   33  O   UNK N   1      35.878  34.261  49.168  0.00  0.00    -0.266 OA
HETATM   34  N   UNK N   1      36.377  33.110  51.030  0.00  0.00    -0.343 N 
HETATM   35  C   UNK N   1      35.020  32.546  51.023  0.00  0.00     0.152 C 
HETATM   36  C   UNK N   1      37.402  32.589  51.946  0.00  0.00     0.152 C 
HETATM   37  C   UNK N   1      34.747  31.588  52.180  0.00  0.00     0.187 C 
HETATM   38  O   UNK N   1      35.870  30.758  52.394  0.00  0.00    -0.388 OA
HETATM   39  C   UNK N   1      36.868  31.576  52.968  0.00  0.00     0.187 C 
ENDBRANCH   1  32
TORSDOF 5
ENDMDL
MODEL 7
REMARK VINA RESULT:      -7.6      7.946     13.908
REMARK  5 active torsions:
REMARK  status: ('A' for Active; 'I' for Inactive)
REMARK    1  A    between atoms: C_2  and  C_3 
REMARK       I    between atoms: C_2  and  N_34 
REMARK    2  A    between atoms: N_6  and  C_7 
REMARK    3  A    between atoms: N_11  and  C_12 
REMARK    4  A    between atoms: C_12  and  C_13 
REMARK    5  A    between atoms: C_13  and  N_14 
ROOT
HETATM    1  C   UNK N   1      41.033  33.276  42.477  0.00  0.00     0.126 A 
HETATM    2  N   UNK N   1      39.761  33.456  42.878  0.00  0.00    -0.292 N 
ATOM      3  HN  UNK N   1      38.947  33.496  42.263  1.00  0.00     0.187 HD
HETATM    4  N   UNK N   1      39.731  33.572  44.201  0.00  0.00    -0.284 N 
HETATM    5  C   UNK N   1      41.003  33.488  44.685  0.00  0.00     0.072 A 
HETATM    6  C   UNK N   1      41.854  33.276  43.594  0.00  0.00     0.019 A 
HETATM    7  C   UNK N   1      43.337  33.009  43.622  0.00  0.00     0.189 C 
HETATM    8  S   UNK N   1      43.696  32.282  45.228  0.00  0.00     0.180 S 
HETATM    9  O   UNK N   1      45.192  32.378  45.562  0.00  0.00    -0.222 OA
HETATM   10  O   UNK N   1      43.456  30.764  45.192  0.00  0.00    -0.222 OA
HETATM   11  C   UNK N   1      42.700  33.013  46.497  0.00  0.00     0.075 A 
HETATM   12  C   UNK N   1      43.152  33.061  47.819  0.00  0.00     0.066 A 
HETATM   13  C   UNK N   1      42.387  33.699  48.793  0.00  0.00     0.117 A 
HETATM   14  F   UNK N   1      42.827  33.756  50.074  0.00  0.00    -0.206 F 
HETATM   15  C   UNK N   1      41.181  34.305  48.442  0.00  0.00     0.043 A 
HETATM   16  C   UNK N   1      40.720  34.252  47.124  0.00  0.00     0.018 A 
HETATM   17  C   UNK N   1      41.459  33.577  46.128  0.00  0.00     0.015 A 
ENDROOT
BRANCH   4  18
HETATM   18  C   UNK N   1      38.458  33.629  44.942  0.00  0.00     0.137 C 
HETATM   19  C   UNK N   1      37.290  34.079  44.026  0.00  0.00     0.031 C 
HETATM   20  C   UNK N   1      36.399  32.896  43.661  0.00  0.00     0.032 C 
HETATM   21  C   UNK N   1      35.790  32.333  44.971  0.00  0.00     0.272 C 
HETATM   22  N   UNK N   1      36.784  32.149  46.074  0.00  0.00     0.092 N 
HETATM   23  C   UNK N   1      38.179  32.256  45.612  0.00  0.00     0.299 C 
BRANCH  22  24
HETATM   24  C   UNK N   1      36.524  32.990  47.264  0.00  0.00     0.302 C 
BRANCH  24  25
HETATM   25  C   UNK N   1      36.336  32.117  48.513  0.00  0.00     0.302 C 
BRANCH  25  26
HETATM   26  N   UNK N   1      36.889  32.767  49.720  0.00  0.00     0.094 N 
HETATM   27  C   UNK N   1      37.422  34.118  49.451  0.00  0.00     0.298 C 
HETATM   28  C   UNK N   1      37.965  34.715  50.755  0.00  0.00     0.198 C 
HETATM   29  O   UNK N   1      36.945  34.792  51.732  0.00  0.00    -0.388 OA
HETATM   30  C   UNK N   1      36.477  33.489  52.027  0.00  0.00     0.198 C 
HETATM   31  C   UNK N   1      35.866  32.843  50.778  0.00  0.00     0.298 C 
ENDBRANCH  25  26
ENDBRANCH  24  25
ENDBRANCH  22  24
ENDBRANCH   4  18
BRANCH   1  32
HETATM   32  C   UNK N   1      41.476  33.093  41.058  0.00  0.00     0.272 C 
HETATM   33  O   UNK N   1      42.077  34.020  40.532  0.00  0.00    -0.266 OA
HETATM   34  N   UNK N   1      41.278  31.931  40.341  0.00  0.00    -0.343 N 
HETATM   35  C   UNK N   1      41.823  31.866  38.978  0.00  0.00     0.152 C 
HETATM   36  C   UNK N   1      40.747  30.725  40.995  0.00  0.00     0.152 C 
HETATM   37  C   UNK N   1      41.559  30.538  38.272  0.00  0.00     0.187 C 
HETATM   38  O   UNK N   1      41.748  29.468  39.174  0.00  0.00    -0.388 OA
HETATM   39  C   UNK N   1      40.659  29.503  40.071  0.00  0.00     0.187 C 
ENDBRANCH   1  32
TORSDOF 5
ENDMDL
MODEL 8
REMARK VINA RESULT:      -7.5      3.206      4.486
REMARK  5 active torsions:
REMARK  status: ('A' for Active; 'I' for Inactive)
REMARK    1  A    between atoms: C_2  and  C_3 
REMARK       I    between atoms: C_2  and  N_34 
REMARK    2  A    between atoms: N_6  and  C_7 
REMARK    3  A    between atoms: N_11  and  C_12 
REMARK    4  A    between atoms: C_12  and  C_13 
REMARK    5  A    between atoms: C_13  and  N_14 
ROOT
HETATM    1  C   UNK N   1      39.682  39.028  52.950  0.00  0.00     0.126 A 
HETATM    2  N   UNK N   1      40.656  38.913  52.028  0.00  0.00    -0.292 N 
ATOM      3  HN  UNK N   1      41.479  39.512  51.960  1.00  0.00     0.187 HD
HETATM    4  N   UNK N   1      40.376  37.897  51.220  0.00  0.00    -0.284 N 
HETATM    5  C   UNK N   1      39.189  37.339  51.598  0.00  0.00     0.072 A 
HETATM    6  C   UNK N   1      38.738  38.039  52.723  0.00  0.00     0.019 A 
HETATM    7  C   UNK N   1      37.531  37.733  53.572  0.00  0.00     0.189 C 
HETATM    8  S   UNK N   1      37.206  35.974  53.388  0.00  0.00     0.180 S 
HETATM    9  O   UNK N   1      35.775  35.621  53.821  0.00  0.00    -0.222 OA
HETATM   10  O   UNK N   1      38.066  35.166  54.374  0.00  0.00    -0.222 OA
HETATM   11  C   UNK N   1      37.534  35.435  51.733  0.00  0.00     0.075 A 
HETATM   12  C   UNK N   1      36.856  34.338  51.193  0.00  0.00     0.066 A 
HETATM   13  C   UNK N   1      37.076  33.968  49.868  0.00  0.00     0.117 A 
HETATM   14  F   UNK N   1      36.413  32.910  49.338  0.00  0.00    -0.206 F 
HETATM   15  C   UNK N   1      37.957  34.704  49.078  0.00  0.00     0.043 A 
HETATM   16  C   UNK N   1      38.645  35.796  49.615  0.00  0.00     0.018 A 
HETATM   17  C   UNK N   1      38.467  36.166  50.966  0.00  0.00     0.015 A 
ENDROOT
BRANCH   4  18
HETATM   18  C   UNK N   1      41.335  37.434  50.202  0.00  0.00     0.137 C 
HETATM   19  C   UNK N   1      42.241  38.593  49.710  0.00  0.00     0.031 C 
HETATM   20  C   UNK N   1      43.642  38.475  50.301  0.00  0.00     0.032 C 
HETATM   21  C   UNK N   1      44.260  37.142  49.807  0.00  0.00     0.272 C 
HETATM   22  N   UNK N   1      43.346  35.965  49.929  0.00  0.00     0.092 N 
HETATM   23  C   UNK N   1      42.161  36.244  50.760  0.00  0.00     0.299 C 
BRANCH  22  24
HETATM   24  C   UNK N   1      42.986  35.346  48.634  0.00  0.00     0.302 C 
BRANCH  24  25
HETATM   25  C   UNK N   1      42.598  33.872  48.828  0.00  0.00     0.302 C 
BRANCH  25  26
HETATM   26  N   UNK N   1      42.695  33.113  47.563  0.00  0.00     0.094 N 
HETATM   27  C   UNK N   1      42.676  33.982  46.369  0.00  0.00     0.298 C 
HETATM   28  C   UNK N   1      42.788  33.112  45.111  0.00  0.00     0.198 C 
HETATM   29  O   UNK N   1      43.984  32.357  45.131  0.00  0.00    -0.388 OA
HETATM   30  C   UNK N   1      43.973  31.485  46.246  0.00  0.00     0.198 C 
HETATM   31  C   UNK N   1      43.916  32.287  47.552  0.00  0.00     0.298 C 
ENDBRANCH  25  26
ENDBRANCH  24  25
ENDBRANCH  22  24
ENDBRANCH   4  18
BRANCH   1  32
HETATM   32  C   UNK N   1      39.642  40.048  54.046  0.00  0.00     0.272 C 
HETATM   33  O   UNK N   1      39.352  41.196  53.736  0.00  0.00    -0.266 OA
HETATM   34  N   UNK N   1      39.876  39.753  55.373  0.00  0.00    -0.343 N 
HETATM   35  C   UNK N   1      39.740  40.841  56.351  0.00  0.00     0.152 C 
HETATM   36  C   UNK N   1      40.027  38.359  55.817  0.00  0.00     0.152 C 
HETATM   37  C   UNK N   1      40.010  40.410  57.792  0.00  0.00     0.187 C 
HETATM   38  O   UNK N   1      39.425  39.148  58.034  0.00  0.00    -0.388 OA
HETATM   39  C   UNK N   1      40.207  38.203  57.334  0.00  0.00     0.187 C 
ENDBRANCH   1  32
TORSDOF 5
ENDMDL
MODEL 9
REMARK VINA RESULT:      -7.4      4.941      9.350
REMARK  5 active torsions:
REMARK  status: ('A' for Active; 'I' for Inactive)
REMARK    1  A    between atoms: C_2  and  C_3 
REMARK       I    between atoms: C_2  and  N_34 
REMARK    2  A    between atoms: N_6  and  C_7 
REMARK    3  A    between atoms: N_11  and  C_12 
REMARK    4  A    between atoms: C_12  and  C_13 
REMARK    5  A    between atoms: C_13  and  N_14 
ROOT
HETATM    1  C   UNK N   1      37.587  34.032  50.155  0.00  0.00     0.126 A 
HETATM    2  N   UNK N   1      37.232  34.630  51.308  0.00  0.00    -0.292 N 
ATOM      3  HN  UNK N   1      36.476  34.327  51.922  1.00  0.00     0.187 HD
HETATM    4  N   UNK N   1      38.022  35.676  51.519  0.00  0.00    -0.284 N 
HETATM    5  C   UNK N   1      38.902  35.788  50.483  0.00  0.00     0.072 A 
HETATM    6  C   UNK N   1      38.653  34.727  49.605  0.00  0.00     0.019 A 
HETATM    7  C   UNK N   1      39.431  34.353  48.370  0.00  0.00     0.189 C 
HETATM    8  S   UNK N   1      41.099  34.984  48.604  0.00  0.00     0.180 S 
HETATM    9  O   UNK N   1      41.854  35.075  47.270  0.00  0.00    -0.222 OA
HETATM   10  O   UNK N   1      41.943  33.978  49.402  0.00  0.00    -0.222 OA
HETATM   11  C   UNK N   1      41.078  36.544  49.444  0.00  0.00     0.075 A 
HETATM   12  C   UNK N   1      42.104  37.474  49.246  0.00  0.00     0.066 A 
HETATM   13  C   UNK N   1      42.039  38.722  49.861  0.00  0.00     0.117 A 
HETATM   14  F   UNK N   1      43.027  39.630  49.663  0.00  0.00    -0.206 F 
HETATM   15  C   UNK N   1      40.942  39.047  50.658  0.00  0.00     0.043 A 
HETATM   16  C   UNK N   1      39.920  38.118  50.868  0.00  0.00     0.018 A 
HETATM   17  C   UNK N   1      39.983  36.832  50.286  0.00  0.00     0.015 A 
ENDROOT
BRANCH   4  18
HETATM   18  C   UNK N   1      37.971  36.440  52.779  0.00  0.00     0.137 C 
HETATM   19  C   UNK N   1      36.885  37.547  52.724  0.00  0.00     0.031 C 
HETATM   20  C   UNK N   1      35.664  37.150  53.547  0.00  0.00     0.032 C 
HETATM   21  C   UNK N   1      36.112  36.990  55.023  0.00  0.00     0.272 C 
HETATM   22  N   UNK N   1      37.364  36.192  55.196  0.00  0.00     0.092 N 
HETATM   23  C   UNK N   1      37.757  35.471  53.973  0.00  0.00     0.299 C 
BRANCH  22  24
HETATM   24  C   UNK N   1      38.489  36.956  55.780  0.00  0.00     0.302 C 
BRANCH  24  25
HETATM   25  C   UNK N   1      37.986  38.262  56.412  0.00  0.00     0.302 C 
BRANCH  25  26
HETATM   26  N   UNK N   1      38.683  39.440  55.854  0.00  0.00     0.094 N 
HETATM   27  C   UNK N   1      39.651  39.087  54.796  0.00  0.00     0.298 C 
HETATM   28  C   UNK N   1      40.318  40.366  54.274  0.00  0.00     0.198 C 
HETATM   29  O   UNK N   1      39.349  41.257  53.754  0.00  0.00    -0.388 OA
HETATM   30  C   UNK N   1      38.457  41.636  54.785  0.00  0.00     0.198 C 
HETATM   31  C   UNK N   1      37.709  40.412  55.324  0.00  0.00     0.298 C 
ENDBRANCH  25  26
ENDBRANCH  24  25
ENDBRANCH  22  24
ENDBRANCH   4  18
BRANCH   1  32
HETATM   32  C   UNK N   1      36.940  32.811  49.578  0.00  0.00     0.272 C 
HETATM   33  O   UNK N   1      36.848  31.828  50.301  0.00  0.00    -0.266 OA
HETATM   34  N   UNK N   1      36.415  32.755  48.302  0.00  0.00    -0.343 N 
HETATM   35  C   UNK N   1      35.751  31.511  47.890  0.00  0.00     0.152 C 
HETATM   36  C   UNK N   1      36.320  33.968  47.476  0.00  0.00     0.152 C 
HETATM   37  C   UNK N   1      35.196  31.554  46.467  0.00  0.00     0.187 C 
HETATM   38  O   UNK N   1      34.594  32.808  46.222  0.00  0.00    -0.388 OA
HETATM   39  C   UNK N   1      35.646  33.743  46.116  0.00  0.00     0.187 C 
ENDBRANCH   1  32
TORSDOF 5
ENDMDL
