MODEL 1
REMARK VINA RESULT:      -9.1      0.000      0.000
REMARK  4 active torsions:
REMARK  status: ('A' for Active; 'I' for Inactive)
REMARK    1  A    between atoms: C_2  and  C_3 
REMARK       I    between atoms: C_2  and  N_33 
REMARK    2  A    between atoms: N_6  and  C_7 
REMARK    3  A    between atoms: N_11  and  C_12 
REMARK    4  A    between atoms: C_12  and  C_13 
ROOT
HETATM    1  C   UNK N   1      43.045  34.297  47.857  0.00  0.00     0.126 A 
HETATM    2  N   UNK N   1      43.988  35.124  48.339  0.00  0.00    -0.292 N 
ATOM      3  HN  UNK N   1      44.995  34.958  48.307  1.00  0.00     0.187 HD
HETATM    4  N   UNK N   1      43.402  36.192  48.864  0.00  0.00    -0.284 N 
HETATM    5  C   UNK N   1      42.049  36.080  48.712  0.00  0.00     0.074 A 
HETATM    6  C   UNK N   1      41.800  34.849  48.090  0.00  0.00     0.019 A 
HETATM    7  C   UNK N   1      40.472  34.209  47.788  0.00  0.00     0.191 C 
HETATM    8  S   UNK N   1      39.285  34.928  48.937  0.00  0.00     0.196 S 
HETATM    9  O   UNK N   1      39.299  34.152  50.263  0.00  0.00    -0.221 OA
HETATM   10  O   UNK N   1      37.836  34.743  48.461  0.00  0.00    -0.221 OA
HETATM   11  C   UNK N   1      39.643  36.627  49.263  0.00  0.00     0.141 A 
HETATM   12  N   UNK N   1      38.644  37.485  49.602  0.00  0.00    -0.356 N 
ATOM     13  HN  UNK N   1      37.697  37.126  49.722  1.00  0.00     0.166 HD
HETATM   14  C   UNK N   1      38.880  38.808  49.785  0.00  0.00     0.089 A 
HETATM   15  C   UNK N   1      40.161  39.319  49.596  0.00  0.00     0.018 A 
HETATM   16  C   UNK N   1      41.205  38.459  49.252  0.00  0.00     0.018 A 
HETATM   17  C   UNK N   1      40.970  37.074  49.105  0.00  0.00     0.031 A 
ENDROOT
BRANCH   4  18
HETATM   18  C   UNK N   1      44.193  37.223  49.547  0.00  0.00     0.137 C 
HETATM   19  C   UNK N   1      45.681  37.059  49.210  0.00  0.00     0.031 C 
HETATM   20  C   UNK N   1      46.494  38.119  49.955  0.00  0.00     0.032 C 
HETATM   21  C   UNK N   1      46.231  38.017  51.461  0.00  0.00     0.272 C 
HETATM   22  N   UNK N   1      44.786  38.181  51.739  0.00  0.00     0.090 N 
HETATM   23  C   UNK N   1      43.996  37.128  51.070  0.00  0.00     0.299 C 
BRANCH  22  24
HETATM   24  C   UNK N   1      44.507  38.248  53.191  0.00  0.00     0.277 C 
BRANCH  24  25
HETATM   25  C   UNK N   1      43.443  39.320  53.483  0.00  0.00     0.018 C 
HETATM   26  C   UNK N   1      43.118  39.441  54.996  0.00  0.00     0.032 C 
HETATM   27  C   UNK N   1      41.687  39.977  55.221  0.00  0.00     0.168 C 
HETATM   28  O   UNK N   1      41.349  40.957  54.264  0.00  0.00    -0.391 OA
HETATM   29  C   UNK N   1      41.283  40.404  52.945  0.00  0.00     0.168 C 
HETATM   30  C   UNK N   1      42.135  39.123  52.713  0.00  0.00     0.032 C 
ENDBRANCH  24  25
ENDBRANCH  22  24
ENDBRANCH   4  18
BRANCH   1  31
HETATM   31  C   UNK N   1      43.353  33.044  47.124  0.00  0.00     0.272 C 
HETATM   32  O   UNK N   1      43.550  32.036  47.788  0.00  0.00    -0.266 OA
HETATM   33  N   UNK N   1      43.405  32.976  45.750  0.00  0.00    -0.343 N 
HETATM   34  C   UNK N   1      43.465  31.698  45.057  0.00  0.00     0.152 C 
HETATM   35  C   UNK N   1      43.453  34.154  44.892  0.00  0.00     0.152 C 
HETATM   36  C   UNK N   1      42.349  31.704  44.000  0.00  0.00     0.187 C 
HETATM   37  O   UNK N   1      42.512  32.800  43.112  0.00  0.00    -0.388 OA
HETATM   38  C   UNK N   1      42.372  34.025  43.817  0.00  0.00     0.187 C 
ENDBRANCH   1  31
TORSDOF 4
ENDMDL
MODEL 2
REMARK VINA RESULT:      -9.0      4.406      7.998
REMARK  4 active torsions:
REMARK  status: ('A' for Active; 'I' for Inactive)
REMARK    1  A    between atoms: C_2  and  C_3 
REMARK       I    between atoms: C_2  and  N_33 
REMARK    2  A    between atoms: N_6  and  C_7 
REMARK    3  A    between atoms: N_11  and  C_12 
REMARK    4  A    between atoms: C_12  and  C_13 
ROOT
HETATM    1  C   UNK N   1      38.471  33.521  44.093  0.00  0.00     0.126 A 
HETATM    2  N   UNK N   1      39.636  33.354  44.743  0.00  0.00    -0.292 N 
ATOM      3  HN  UNK N   1      39.739  33.210  45.748  1.00  0.00     0.187 HD
HETATM    4  N   UNK N   1      40.632  33.408  43.868  0.00  0.00    -0.284 N 
HETATM    5  C   UNK N   1      40.119  33.595  42.616  0.00  0.00     0.074 A 
HETATM    6  C   UNK N   1      38.728  33.699  42.747  0.00  0.00     0.019 A 
HETATM    7  C   UNK N   1      37.711  34.006  41.680  0.00  0.00     0.191 C 
HETATM    8  S   UNK N   1      38.590  34.878  40.372  0.00  0.00     0.196 S 
HETATM    9  O   UNK N   1      38.640  36.382  40.683  0.00  0.00    -0.221 OA
HETATM   10  O   UNK N   1      37.826  34.841  39.040  0.00  0.00    -0.221 OA
HETATM   11  C   UNK N   1      40.240  34.276  40.184  0.00  0.00     0.141 A 
HETATM   12  N   UNK N   1      40.864  34.351  38.978  0.00  0.00    -0.356 N 
ATOM     13  HN  UNK N   1      40.391  34.810  38.200  1.00  0.00     0.166 HD
HETATM   14  C   UNK N   1      42.102  33.829  38.788  0.00  0.00     0.089 A 
HETATM   15  C   UNK N   1      42.747  33.174  39.833  0.00  0.00     0.018 A 
HETATM   16  C   UNK N   1      42.131  33.086  41.081  0.00  0.00     0.018 A 
HETATM   17  C   UNK N   1      40.862  33.667  41.293  0.00  0.00     0.031 A 
ENDROOT
BRANCH   4  18
HETATM   18  C   UNK N   1      42.028  33.346  44.316  0.00  0.00     0.137 C 
HETATM   19  C   UNK N   1      42.595  31.937  44.093  0.00  0.00     0.031 C 
HETATM   20  C   UNK N   1      44.039  31.881  44.595  0.00  0.00     0.032 C 
HETATM   21  C   UNK N   1      44.097  32.298  46.068  0.00  0.00     0.272 C 
HETATM   22  N   UNK N   1      43.542  33.660  46.236  0.00  0.00     0.090 N 
HETATM   23  C   UNK N   1      42.130  33.712  45.806  0.00  0.00     0.299 C 
BRANCH  22  24
HETATM   24  C   UNK N   1      43.724  34.165  47.615  0.00  0.00     0.277 C 
BRANCH  24  25
HETATM   25  C   UNK N   1      42.546  35.070  48.014  0.00  0.00     0.018 C 
HETATM   26  C   UNK N   1      42.998  36.504  48.397  0.00  0.00     0.032 C 
HETATM   27  C   UNK N   1      42.001  37.165  49.373  0.00  0.00     0.168 C 
HETATM   28  O   UNK N   1      40.670  36.818  49.060  0.00  0.00    -0.391 OA
HETATM   29  C   UNK N   1      40.430  35.420  49.252  0.00  0.00     0.168 C 
HETATM   30  C   UNK N   1      41.685  34.507  49.147  0.00  0.00     0.032 C 
ENDBRANCH  24  25
ENDBRANCH  22  24
ENDBRANCH   4  18
BRANCH   1  31
HETATM   31  C   UNK N   1      37.146  33.431  44.754  0.00  0.00     0.272 C 
HETATM   32  O   UNK N   1      36.688  34.455  45.241  0.00  0.00    -0.266 OA
HETATM   33  N   UNK N   1      36.422  32.262  44.822  0.00  0.00    -0.343 N 
HETATM   34  C   UNK N   1      35.033  32.256  45.254  0.00  0.00     0.152 C 
HETATM   35  C   UNK N   1      36.987  30.953  44.519  0.00  0.00     0.152 C 
HETATM   36  C   UNK N   1      34.229  31.499  44.183  0.00  0.00     0.187 C 
HETATM   37  O   UNK N   1      34.741  30.185  44.015  0.00  0.00    -0.388 OA
HETATM   38  C   UNK N   1      36.072  30.239  43.522  0.00  0.00     0.187 C 
ENDBRANCH   1  31
TORSDOF 4
ENDMDL
MODEL 3
REMARK VINA RESULT:      -8.7      2.429      3.605
REMARK  4 active torsions:
REMARK  status: ('A' for Active; 'I' for Inactive)
REMARK    1  A    between atoms: C_2  and  C_3 
REMARK       I    between atoms: C_2  and  N_33 
REMARK    2  A    between atoms: N_6  and  C_7 
REMARK    3  A    between atoms: N_11  and  C_12 
REMARK    4  A    between atoms: C_12  and  C_13 
ROOT
HETATM    1  C   UNK N   1      40.182  34.837  48.135  0.00  0.00     0.126 A 
HETATM    2  N   UNK N   1      40.903  35.795  48.742  0.00  0.00    -0.292 N 
ATOM      3  HN  UNK N   1      41.850  36.076  48.485  1.00  0.00     0.187 HD
HETATM    4  N   UNK N   1      40.188  36.316  49.730  0.00  0.00    -0.284 N 
HETATM    5  C   UNK N   1      38.965  35.708  49.767  0.00  0.00     0.074 A 
HETATM    6  C   UNK N   1      38.956  34.731  48.762  0.00  0.00     0.019 A 
HETATM    7  C   UNK N   1      37.882  33.722  48.454  0.00  0.00     0.191 C 
HETATM    8  S   UNK N   1      36.929  33.510  49.968  0.00  0.00     0.196 S 
HETATM    9  O   UNK N   1      37.592  32.452  50.863  0.00  0.00    -0.221 OA
HETATM   10  O   UNK N   1      35.547  32.896  49.698  0.00  0.00    -0.221 OA
HETATM   11  C   UNK N   1      36.796  35.023  50.870  0.00  0.00     0.141 A 
HETATM   12  N   UNK N   1      35.723  35.249  51.674  0.00  0.00    -0.356 N 
ATOM     13  HN  UNK N   1      35.026  34.515  51.795  1.00  0.00     0.166 HD
HETATM   14  C   UNK N   1      35.559  36.431  52.319  0.00  0.00     0.089 A 
HETATM   15  C   UNK N   1      36.485  37.455  52.140  0.00  0.00     0.018 A 
HETATM   16  C   UNK N   1      37.597  37.247  51.323  0.00  0.00     0.018 A 
HETATM   17  C   UNK N   1      37.793  36.002  50.686  0.00  0.00     0.031 A 
ENDROOT
BRANCH   4  18
HETATM   18  C   UNK N   1      40.767  37.326  50.624  0.00  0.00     0.137 C 
HETATM   19  C   UNK N   1      40.631  38.724  50.004  0.00  0.00     0.031 C 
HETATM   20  C   UNK N   1      41.268  39.759  50.933  0.00  0.00     0.032 C 
HETATM   21  C   UNK N   1      42.730  39.390  51.202  0.00  0.00     0.272 C 
HETATM   22  N   UNK N   1      42.814  38.038  51.799  0.00  0.00     0.090 N 
HETATM   23  C   UNK N   1      42.252  37.022  50.886  0.00  0.00     0.299 C 
BRANCH  22  24
HETATM   24  C   UNK N   1      44.192  37.705  52.222  0.00  0.00     0.277 C 
BRANCH  24  25
HETATM   25  C   UNK N   1      44.831  38.896  52.955  0.00  0.00     0.018 C 
HETATM   26  C   UNK N   1      46.354  38.708  53.185  0.00  0.00     0.032 C 
HETATM   27  C   UNK N   1      46.839  39.506  54.416  0.00  0.00     0.168 C 
HETATM   28  O   UNK N   1      46.176  40.747  54.516  0.00  0.00    -0.391 OA
HETATM   29  C   UNK N   1      44.777  40.579  54.771  0.00  0.00     0.168 C 
HETATM   30  C   UNK N   1      44.169  39.229  54.295  0.00  0.00     0.032 C 
ENDBRANCH  24  25
ENDBRANCH  22  24
ENDBRANCH   4  18
BRANCH   1  31
HETATM   31  C   UNK N   1      40.644  34.104  46.931  0.00  0.00     0.272 C 
HETATM   32  O   UNK N   1      39.915  34.114  45.949  0.00  0.00    -0.266 OA
HETATM   33  N   UNK N   1      41.850  33.441  46.877  0.00  0.00    -0.343 N 
HETATM   34  C   UNK N   1      42.384  32.943  45.619  0.00  0.00     0.152 C 
HETATM   35  C   UNK N   1      42.653  33.145  48.057  0.00  0.00     0.152 C 
HETATM   36  C   UNK N   1      43.825  33.468  45.500  0.00  0.00     0.187 C 
HETATM   37  O   UNK N   1      44.600  33.047  46.613  0.00  0.00    -0.388 OA
HETATM   38  C   UNK N   1      44.088  33.616  47.809  0.00  0.00     0.187 C 
ENDBRANCH   1  31
TORSDOF 4
ENDMDL
MODEL 4
REMARK VINA RESULT:      -8.4      3.937      7.814
REMARK  4 active torsions:
REMARK  status: ('A' for Active; 'I' for Inactive)
REMARK    1  A    between atoms: C_2  and  C_3 
REMARK       I    between atoms: C_2  and  N_33 
REMARK    2  A    between atoms: N_6  and  C_7 
REMARK    3  A    between atoms: N_11  and  C_12 
REMARK    4  A    between atoms: C_12  and  C_13 
ROOT
HETATM    1  C   UNK N   1      39.953  39.127  52.837  0.00  0.00     0.126 A 
HETATM    2  N   UNK N   1      41.014  38.775  52.091  0.00  0.00    -0.292 N 
ATOM      3  HN  UNK N   1      41.960  39.142  52.196  1.00  0.00     0.187 HD
HETATM    4  N   UNK N   1      40.634  37.872  51.196  0.00  0.00    -0.284 N 
HETATM    5  C   UNK N   1      39.304  37.608  51.362  0.00  0.00     0.074 A 
HETATM    6  C   UNK N   1      38.843  38.431  52.399  0.00  0.00     0.019 A 
HETATM    7  C   UNK N   1      37.433  38.593  52.903  0.00  0.00     0.191 C 
HETATM    8  S   UNK N   1      36.347  38.099  51.553  0.00  0.00     0.196 S 
HETATM    9  O   UNK N   1      36.095  39.291  50.617  0.00  0.00    -0.221 OA
HETATM   10  O   UNK N   1      34.933  37.758  52.045  0.00  0.00    -0.221 OA
HETATM   11  C   UNK N   1      37.039  36.770  50.616  0.00  0.00     0.141 A 
HETATM   12  N   UNK N   1      36.226  35.894  49.966  0.00  0.00    -0.356 N 
ATOM     13  HN  UNK N   1      35.218  36.045  49.979  1.00  0.00     0.166 HD
HETATM   14  C   UNK N   1      36.728  34.823  49.302  0.00  0.00     0.089 A 
HETATM   15  C   UNK N   1      38.100  34.586  49.301  0.00  0.00     0.018 A 
HETATM   16  C   UNK N   1      38.956  35.472  49.956  0.00  0.00     0.018 A 
HETATM   17  C   UNK N   1      38.439  36.612  50.611  0.00  0.00     0.031 A 
ENDROOT
BRANCH   4  18
HETATM   18  C   UNK N   1      41.575  37.376  50.185  0.00  0.00     0.137 C 
HETATM   19  C   UNK N   1      41.892  35.895  50.437  0.00  0.00     0.031 C 
HETATM   20  C   UNK N   1      42.899  35.403  49.394  0.00  0.00     0.032 C 
HETATM   21  C   UNK N   1      44.158  36.275  49.433  0.00  0.00     0.272 C 
HETATM   22  N   UNK N   1      43.807  37.691  49.185  0.00  0.00     0.090 N 
HETATM   23  C   UNK N   1      42.878  38.194  50.218  0.00  0.00     0.299 C 
BRANCH  22  24
HETATM   24  C   UNK N   1      45.009  38.545  49.055  0.00  0.00     0.277 C 
BRANCH  24  25
HETATM   25  C   UNK N   1      46.164  37.976  49.896  0.00  0.00     0.018 C 
HETATM   26  C   UNK N   1      46.040  38.337  51.400  0.00  0.00     0.032 C 
HETATM   27  C   UNK N   1      47.422  38.360  52.088  0.00  0.00     0.168 C 
HETATM   28  O   UNK N   1      48.260  37.339  51.591  0.00  0.00    -0.391 OA
HETATM   29  C   UNK N   1      48.581  37.547  50.211  0.00  0.00     0.168 C 
HETATM   30  C   UNK N   1      47.553  38.390  49.405  0.00  0.00     0.032 C 
ENDBRANCH  24  25
ENDBRANCH  22  24
ENDBRANCH   4  18
BRANCH   1  31
HETATM   31  C   UNK N   1      40.036  40.055  53.992  0.00  0.00     0.272 C 
HETATM   32  O   UNK N   1      39.893  41.249  53.768  0.00  0.00    -0.266 OA
HETATM   33  N   UNK N   1      40.248  39.625  55.283  0.00  0.00    -0.343 N 
HETATM   34  C   UNK N   1      40.082  40.523  56.416  0.00  0.00     0.152 C 
HETATM   35  C   UNK N   1      40.693  38.277  55.614  0.00  0.00     0.152 C 
HETATM   36  C   UNK N   1      39.147  39.821  57.416  0.00  0.00     0.187 C 
HETATM   37  O   UNK N   1      39.688  38.566  57.803  0.00  0.00    -0.388 OA
HETATM   38  C   UNK N   1      39.762  37.698  56.681  0.00  0.00     0.187 C 
ENDBRANCH   1  31
TORSDOF 4
ENDMDL
MODEL 5
REMARK VINA RESULT:      -8.3      2.730      7.391
REMARK  4 active torsions:
REMARK  status: ('A' for Active; 'I' for Inactive)
REMARK    1  A    between atoms: C_2  and  C_3 
REMARK       I    between atoms: C_2  and  N_33 
REMARK    2  A    between atoms: N_6  and  C_7 
REMARK    3  A    between atoms: N_11  and  C_12 
REMARK    4  A    between atoms: C_12  and  C_13 
ROOT
HETATM    1  C   UNK N   1      42.775  36.785  50.740  0.00  0.00     0.126 A 
HETATM    2  N   UNK N   1      43.116  35.691  50.036  0.00  0.00    -0.292 N 
ATOM      3  HN  UNK N   1      44.064  35.332  49.921  1.00  0.00     0.187 HD
HETATM    4  N   UNK N   1      42.021  35.153  49.514  0.00  0.00    -0.284 N 
HETATM    5  C   UNK N   1      40.935  35.891  49.893  0.00  0.00     0.074 A 
HETATM    6  C   UNK N   1      41.408  36.964  50.660  0.00  0.00     0.019 A 
HETATM    7  C   UNK N   1      40.626  38.117  51.231  0.00  0.00     0.191 C 
HETATM    8  S   UNK N   1      39.139  38.274  50.226  0.00  0.00     0.196 S 
HETATM    9  O   UNK N   1      39.427  39.147  48.995  0.00  0.00    -0.221 OA
HETATM   10  O   UNK N   1      38.038  39.068  50.945  0.00  0.00    -0.221 OA
HETATM   11  C   UNK N   1      38.549  36.699  49.687  0.00  0.00     0.141 A 
HETATM   12  N   UNK N   1      37.226  36.513  49.434  0.00  0.00    -0.356 N 
ATOM     13  HN  UNK N   1      36.588  37.305  49.504  1.00  0.00     0.166 HD
HETATM   14  C   UNK N   1      36.735  35.295  49.092  0.00  0.00     0.089 A 
HETATM   15  C   UNK N   1      37.587  34.197  49.022  0.00  0.00     0.018 A 
HETATM   16  C   UNK N   1      38.950  34.361  49.273  0.00  0.00     0.018 A 
HETATM   17  C   UNK N   1      39.470  35.637  49.586  0.00  0.00     0.031 A 
ENDROOT
BRANCH   4  18
HETATM   18  C   UNK N   1      42.109  33.994  48.618  0.00  0.00     0.137 C 
HETATM   19  C   UNK N   1      43.418  33.231  48.865  0.00  0.00     0.031 C 
HETATM   20  C   UNK N   1      43.508  32.046  47.901  0.00  0.00     0.032 C 
HETATM   21  C   UNK N   1      43.394  32.539  46.455  0.00  0.00     0.272 C 
HETATM   22  N   UNK N   1      42.120  33.266  46.263  0.00  0.00     0.090 N 
HETATM   23  C   UNK N   1      42.046  34.446  47.149  0.00  0.00     0.299 C 
BRANCH  22  24
HETATM   24  C   UNK N   1      41.895  33.622  44.844  0.00  0.00     0.277 C 
BRANCH  24  25
HETATM   25  C   UNK N   1      40.440  34.074  44.629  0.00  0.00     0.018 C 
HETATM   26  C   UNK N   1      39.411  33.062  45.198  0.00  0.00     0.032 C 
HETATM   27  C   UNK N   1      38.062  33.152  44.450  0.00  0.00     0.168 C 
HETATM   28  O   UNK N   1      37.750  34.487  44.115  0.00  0.00    -0.391 OA
HETATM   29  C   UNK N   1      38.681  35.024  43.169  0.00  0.00     0.168 C 
HETATM   30  C   UNK N   1      40.089  34.363  43.168  0.00  0.00     0.032 C 
ENDBRANCH  24  25
ENDBRANCH  22  24
ENDBRANCH   4  18
BRANCH   1  31
HETATM   31  C   UNK N   1      43.744  37.584  51.528  0.00  0.00     0.272 C 
HETATM   32  O   UNK N   1      43.469  37.811  52.698  0.00  0.00    -0.266 OA
HETATM   33  N   UNK N   1      44.927  38.055  51.003  0.00  0.00    -0.343 N 
HETATM   34  C   UNK N   1      45.962  38.620  51.857  0.00  0.00     0.152 C 
HETATM   35  C   UNK N   1      45.218  38.072  49.576  0.00  0.00     0.152 C 
HETATM   36  C   UNK N   1      47.275  37.898  51.512  0.00  0.00     0.187 C 
HETATM   37  O   UNK N   1      47.579  38.050  50.133  0.00  0.00    -0.388 OA
HETATM   38  C   UNK N   1      46.582  37.420  49.341  0.00  0.00     0.187 C 
ENDBRANCH   1  31
TORSDOF 4
ENDMDL
MODEL 6
REMARK VINA RESULT:      -8.1      3.214      8.200
REMARK  4 active torsions:
REMARK  status: ('A' for Active; 'I' for Inactive)
REMARK    1  A    between atoms: C_2  and  C_3 
REMARK       I    between atoms: C_2  and  N_33 
REMARK    2  A    between atoms: N_6  and  C_7 
REMARK    3  A    between atoms: N_11  and  C_12 
REMARK    4  A    between atoms: C_12  and  C_13 
ROOT
HETATM    1  C   UNK N   1      38.929  38.479  52.434  0.00  0.00     0.126 A 
HETATM    2  N   UNK N   1      39.777  38.120  51.455  0.00  0.00    -0.292 N 
ATOM      3  HN  UNK N   1      39.508  37.710  50.559  1.00  0.00     0.187 HD
HETATM    4  N   UNK N   1      41.019  38.383  51.838  0.00  0.00    -0.284 N 
HETATM    5  C   UNK N   1      40.994  38.943  53.084  0.00  0.00     0.074 A 
HETATM    6  C   UNK N   1      39.655  38.985  53.495  0.00  0.00     0.019 A 
HETATM    7  C   UNK N   1      39.101  39.419  54.826  0.00  0.00     0.191 C 
HETATM    8  S   UNK N   1      40.436  39.230  56.021  0.00  0.00     0.196 S 
HETATM    9  O   UNK N   1      40.461  37.791  56.559  0.00  0.00    -0.221 OA
HETATM   10  O   UNK N   1      40.193  40.055  57.293  0.00  0.00    -0.221 OA
HETATM   11  C   UNK N   1      42.008  39.601  55.305  0.00  0.00     0.141 A 
HETATM   12  N   UNK N   1      43.021  40.069  56.081  0.00  0.00    -0.356 N 
ATOM     13  HN  UNK N   1      42.883  40.150  57.088  1.00  0.00     0.166 HD
HETATM   14  C   UNK N   1      44.213  40.433  55.545  0.00  0.00     0.089 A 
HETATM   15  C   UNK N   1      44.408  40.358  54.168  0.00  0.00     0.018 A 
HETATM   16  C   UNK N   1      43.386  39.877  53.350  0.00  0.00     0.018 A 
HETATM   17  C   UNK N   1      42.160  39.456  53.911  0.00  0.00     0.031 A 
ENDROOT
BRANCH   4  18
HETATM   18  C   UNK N   1      42.160  38.006  50.996  0.00  0.00     0.137 C 
HETATM   19  C   UNK N   1      42.379  39.057  49.898  0.00  0.00     0.031 C 
HETATM   20  C   UNK N   1      43.551  38.633  49.010  0.00  0.00     0.032 C 
HETATM   21  C   UNK N   1      43.287  37.241  48.428  0.00  0.00     0.272 C 
HETATM   22  N   UNK N   1      43.083  36.261  49.519  0.00  0.00     0.090 N 
HETATM   23  C   UNK N   1      41.919  36.631  50.351  0.00  0.00     0.299 C 
BRANCH  22  24
HETATM   24  C   UNK N   1      42.984  34.876  49.008  0.00  0.00     0.277 C 
BRANCH  24  25
HETATM   25  C   UNK N   1      42.386  34.869  47.591  0.00  0.00     0.018 C 
HETATM   26  C   UNK N   1      40.898  34.431  47.574  0.00  0.00     0.032 C 
HETATM   27  C   UNK N   1      40.510  33.809  46.215  0.00  0.00     0.168 C 
HETATM   28  O   UNK N   1      41.145  34.477  45.146  0.00  0.00    -0.391 OA
HETATM   29  C   UNK N   1      42.566  34.305  45.187  0.00  0.00     0.168 C 
HETATM   30  C   UNK N   1      43.163  34.008  46.593  0.00  0.00     0.032 C 
ENDBRANCH  24  25
ENDBRANCH  22  24
ENDBRANCH   4  18
BRANCH   1  31
HETATM   31  C   UNK N   1      37.453  38.403  52.307  0.00  0.00     0.272 C 
HETATM   32  O   UNK N   1      36.890  39.312  51.714  0.00  0.00    -0.266 OA
HETATM   33  N   UNK N   1      36.713  37.355  52.809  0.00  0.00    -0.343 N 
HETATM   34  C   UNK N   1      35.310  37.185  52.460  0.00  0.00     0.152 C 
HETATM   35  C   UNK N   1      37.246  36.378  53.749  0.00  0.00     0.152 C 
HETATM   36  C   UNK N   1      35.140  35.737  51.968  0.00  0.00     0.187 C 
HETATM   37  O   UNK N   1      35.557  34.821  52.969  0.00  0.00    -0.388 OA
HETATM   38  C   UNK N   1      36.946  34.972  53.224  0.00  0.00     0.187 C 
ENDBRANCH   1  31
TORSDOF 4
ENDMDL
MODEL 7
REMARK VINA RESULT:      -8.0      4.471      7.693
REMARK  4 active torsions:
REMARK  status: ('A' for Active; 'I' for Inactive)
REMARK    1  A    between atoms: C_2  and  C_3 
REMARK       I    between atoms: C_2  and  N_33 
REMARK    2  A    between atoms: N_6  and  C_7 
REMARK    3  A    between atoms: N_11  and  C_12 
REMARK    4  A    between atoms: C_12  and  C_13 
ROOT
HETATM    1  C   UNK N   1      38.311  38.528  52.599  0.00  0.00     0.126 A 
HETATM    2  N   UNK N   1      39.130  38.566  51.535  0.00  0.00    -0.292 N 
ATOM      3  HN  UNK N   1      38.884  38.280  50.586  1.00  0.00     0.187 HD
HETATM    4  N   UNK N   1      40.312  39.037  51.914  0.00  0.00    -0.284 N 
HETATM    5  C   UNK N   1      40.270  39.332  53.247  0.00  0.00     0.074 A 
HETATM    6  C   UNK N   1      38.994  38.983  53.710  0.00  0.00     0.019 A 
HETATM    7  C   UNK N   1      38.474  39.019  55.123  0.00  0.00     0.191 C 
HETATM    8  S   UNK N   1      39.914  38.928  56.201  0.00  0.00     0.196 S 
HETATM    9  O   UNK N   1      40.303  37.460  56.437  0.00  0.00    -0.221 OA
HETATM   10  O   UNK N   1      39.603  39.422  57.622  0.00  0.00    -0.221 OA
HETATM   11  C   UNK N   1      41.298  39.783  55.512  0.00  0.00     0.141 A 
HETATM   12  N   UNK N   1      42.244  40.322  56.325  0.00  0.00    -0.356 N 
ATOM     13  HN  UNK N   1      42.178  40.179  57.332  1.00  0.00     0.166 HD
HETATM   14  C   UNK N   1      43.277  41.048  55.826  0.00  0.00     0.089 A 
HETATM   15  C   UNK N   1      43.365  41.279  54.456  0.00  0.00     0.018 A 
HETATM   16  C   UNK N   1      42.409  40.733  53.599  0.00  0.00     0.018 A 
HETATM   17  C   UNK N   1      41.359  39.941  54.112  0.00  0.00     0.031 A 
ENDROOT
BRANCH   4  18
HETATM   18  C   UNK N   1      41.432  39.101  50.968  0.00  0.00     0.137 C 
HETATM   19  C   UNK N   1      40.937  38.832  49.540  0.00  0.00     0.031 C 
HETATM   20  C   UNK N   1      42.121  38.871  48.572  0.00  0.00     0.032 C 
HETATM   21  C   UNK N   1      43.186  37.861  49.010  0.00  0.00     0.272 C 
HETATM   22  N   UNK N   1      43.635  38.158  50.389  0.00  0.00     0.090 N 
HETATM   23  C   UNK N   1      42.509  38.069  51.342  0.00  0.00     0.299 C 
BRANCH  22  24
HETATM   24  C   UNK N   1      44.776  37.308  50.795  0.00  0.00     0.277 C 
BRANCH  24  25
HETATM   25  C   UNK N   1      46.077  38.129  50.812  0.00  0.00     0.018 C 
HETATM   26  C   UNK N   1      46.910  37.953  49.514  0.00  0.00     0.032 C 
HETATM   27  C   UNK N   1      48.412  38.202  49.773  0.00  0.00     0.168 C 
HETATM   28  O   UNK N   1      48.606  39.252  50.696  0.00  0.00    -0.391 OA
HETATM   29  C   UNK N   1      48.107  38.911  51.994  0.00  0.00     0.168 C 
HETATM   30  C   UNK N   1      46.977  37.842  52.016  0.00  0.00     0.032 C 
ENDBRANCH  24  25
ENDBRANCH  22  24
ENDBRANCH   4  18
BRANCH   1  31
HETATM   31  C   UNK N   1      36.883  38.134  52.518  0.00  0.00     0.272 C 
HETATM   32  O   UNK N   1      36.076  38.998  52.205  0.00  0.00    -0.266 OA
HETATM   33  N   UNK N   1      36.447  36.850  52.762  0.00  0.00    -0.343 N 
HETATM   34  C   UNK N   1      35.089  36.439  52.440  0.00  0.00     0.152 C 
HETATM   35  C   UNK N   1      37.275  35.832  53.395  0.00  0.00     0.152 C 
HETATM   36  C   UNK N   1      35.194  35.156  51.598  0.00  0.00     0.187 C 
HETATM   37  O   UNK N   1      35.901  34.152  52.309  0.00  0.00    -0.388 OA
HETATM   38  C   UNK N   1      37.241  34.565  52.536  0.00  0.00     0.187 C 
ENDBRANCH   1  31
TORSDOF 4
ENDMDL
MODEL 8
REMARK VINA RESULT:      -7.9      3.373      7.289
REMARK  4 active torsions:
REMARK  status: ('A' for Active; 'I' for Inactive)
REMARK    1  A    between atoms: C_2  and  C_3 
REMARK       I    between atoms: C_2  and  N_33 
REMARK    2  A    between atoms: N_6  and  C_7 
REMARK    3  A    between atoms: N_11  and  C_12 
REMARK    4  A    between atoms: C_12  and  C_13 
ROOT
HETATM    1  C   UNK N   1      42.039  34.089  48.296  0.00  0.00     0.126 A 
HETATM    2  N   UNK N   1      40.726  33.815  48.368  0.00  0.00    -0.292 N 
ATOM      3  HN  UNK N   1      40.275  32.974  48.004  1.00  0.00     0.187 HD
HETATM    4  N   UNK N   1      40.108  34.811  48.989  0.00  0.00    -0.284 N 
HETATM    5  C   UNK N   1      41.029  35.753  49.350  0.00  0.00     0.074 A 
HETATM    6  C   UNK N   1      42.276  35.316  48.885  0.00  0.00     0.019 A 
HETATM    7  C   UNK N   1      43.596  36.038  48.939  0.00  0.00     0.191 C 
HETATM    8  S   UNK N   1      43.215  37.793  49.071  0.00  0.00     0.196 S 
HETATM    9  O   UNK N   1      43.004  38.393  47.671  0.00  0.00    -0.221 OA
HETATM   10  O   UNK N   1      44.405  38.605  49.603  0.00  0.00    -0.221 OA
HETATM   11  C   UNK N   1      41.763  38.073  50.038  0.00  0.00     0.141 A 
HETATM   12  N   UNK N   1      41.610  39.236  50.724  0.00  0.00    -0.356 N 
ATOM     13  HN  UNK N   1      42.314  39.968  50.630  1.00  0.00     0.166 HD
HETATM   14  C   UNK N   1      40.542  39.446  51.534  0.00  0.00     0.089 A 
HETATM   15  C   UNK N   1      39.588  38.445  51.698  0.00  0.00     0.018 A 
HETATM   16  C   UNK N   1      39.719  37.243  51.002  0.00  0.00     0.018 A 
HETATM   17  C   UNK N   1      40.807  37.040  50.125  0.00  0.00     0.031 A 
ENDROOT
BRANCH   4  18
HETATM   18  C   UNK N   1      38.647  34.818  49.128  0.00  0.00     0.137 C 
HETATM   19  C   UNK N   1      38.229  34.031  50.379  0.00  0.00     0.031 C 
HETATM   20  C   UNK N   1      36.704  34.020  50.491  0.00  0.00     0.032 C 
HETATM   21  C   UNK N   1      36.091  33.437  49.214  0.00  0.00     0.272 C 
HETATM   22  N   UNK N   1      36.518  34.225  48.036  0.00  0.00     0.090 N 
HETATM   23  C   UNK N   1      37.987  34.196  47.886  0.00  0.00     0.299 C 
BRANCH  22  24
HETATM   24  C   UNK N   1      35.824  33.795  46.801  0.00  0.00     0.277 C 
BRANCH  24  25
HETATM   25  C   UNK N   1      36.706  32.821  46.002  0.00  0.00     0.018 C 
HETATM   26  C   UNK N   1      36.809  33.204  44.502  0.00  0.00     0.032 C 
HETATM   27  C   UNK N   1      37.099  31.967  43.624  0.00  0.00     0.168 C 
HETATM   28  O   UNK N   1      37.982  31.076  44.271  0.00  0.00    -0.391 OA
HETATM   29  C   UNK N   1      37.392  30.508  45.445  0.00  0.00     0.168 C 
HETATM   30  C   UNK N   1      36.269  31.358  46.106  0.00  0.00     0.032 C 
ENDBRANCH  24  25
ENDBRANCH  22  24
ENDBRANCH   4  18
BRANCH   1  31
HETATM   31  C   UNK N   1      43.042  33.149  47.739  0.00  0.00     0.272 C 
HETATM   32  O   UNK N   1      43.591  32.383  48.518  0.00  0.00    -0.266 OA
HETATM   33  N   UNK N   1      43.356  33.098  46.399  0.00  0.00    -0.343 N 
HETATM   34  C   UNK N   1      44.153  32.012  45.849  0.00  0.00     0.152 C 
HETATM   35  C   UNK N   1      42.967  34.130  45.447  0.00  0.00     0.152 C 
HETATM   36  C   UNK N   1      43.378  31.445  44.648  0.00  0.00     0.187 C 
HETATM   37  O   UNK N   1      43.132  32.465  43.690  0.00  0.00    -0.388 OA
HETATM   38  C   UNK N   1      42.290  33.465  44.246  0.00  0.00     0.187 C 
ENDBRANCH   1  31
TORSDOF 4
ENDMDL
MODEL 9
REMARK VINA RESULT:      -7.9      2.915      9.112
REMARK  4 active torsions:
REMARK  status: ('A' for Active; 'I' for Inactive)
REMARK    1  A    between atoms: C_2  and  C_3 
REMARK       I    between atoms: C_2  and  N_33 
REMARK    2  A    between atoms: N_6  and  C_7 
REMARK    3  A    between atoms: N_11  and  C_12 
REMARK    4  A    between atoms: C_12  and  C_13 
ROOT
HETATM    1  C   UNK N   1      41.332  39.368  52.841  0.00  0.00     0.126 A 
HETATM    2  N   UNK N   1      40.770  38.578  51.911  0.00  0.00    -0.292 N 
ATOM      3  HN  UNK N   1      39.770  38.401  51.809  1.00  0.00     0.187 HD
HETATM    4  N   UNK N   1      41.724  38.063  51.146  0.00  0.00    -0.284 N 
HETATM    5  C   UNK N   1      42.936  38.533  51.564  0.00  0.00     0.074 A 
HETATM    6  C   UNK N   1      42.703  39.355  52.675  0.00  0.00     0.019 A 
HETATM    7  C   UNK N   1      43.714  40.034  53.560  0.00  0.00     0.191 C 
HETATM    8  S   UNK N   1      45.246  39.101  53.397  0.00  0.00     0.196 S 
HETATM    9  O   UNK N   1      45.252  37.923  54.384  0.00  0.00    -0.221 OA
HETATM   10  O   UNK N   1      46.469  39.916  53.846  0.00  0.00    -0.221 OA
HETATM   11  C   UNK N   1      45.456  38.477  51.758  0.00  0.00     0.141 A 
HETATM   12  N   UNK N   1      46.704  38.263  51.261  0.00  0.00    -0.356 N 
ATOM     13  HN  UNK N   1      47.513  38.412  51.862  1.00  0.00     0.166 HD
HETATM   14  C   UNK N   1      46.895  37.856  49.981  0.00  0.00     0.089 A 
HETATM   15  C   UNK N   1      45.802  37.678  49.137  0.00  0.00     0.018 A 
HETATM   16  C   UNK N   1      44.511  37.886  49.624  0.00  0.00     0.018 A 
HETATM   17  C   UNK N   1      44.307  38.267  50.969  0.00  0.00     0.031 A 
ENDROOT
BRANCH   4  18
HETATM   18  C   UNK N   1      41.401  37.085  50.100  0.00  0.00     0.137 C 
HETATM   19  C   UNK N   1      39.901  36.757  50.125  0.00  0.00     0.031 C 
HETATM   20  C   UNK N   1      39.587  35.714  49.051  0.00  0.00     0.032 C 
HETATM   21  C   UNK N   1      40.452  34.468  49.265  0.00  0.00     0.272 C 
HETATM   22  N   UNK N   1      41.887  34.829  49.232  0.00  0.00     0.090 N 
HETATM   23  C   UNK N   1      42.213  35.795  50.302  0.00  0.00     0.299 C 
BRANCH  22  24
HETATM   24  C   UNK N   1      42.760  33.635  49.275  0.00  0.00     0.277 C 
BRANCH  24  25
HETATM   25  C   UNK N   1      43.613  33.549  47.999  0.00  0.00     0.018 C 
HETATM   26  C   UNK N   1      42.940  34.240  46.783  0.00  0.00     0.032 C 
HETATM   27  C   UNK N   1      43.418  33.623  45.451  0.00  0.00     0.168 C 
HETATM   28  O   UNK N   1      44.787  33.284  45.504  0.00  0.00    -0.391 OA
HETATM   29  C   UNK N   1      45.035  32.240  46.451  0.00  0.00     0.168 C 
HETATM   30  C   UNK N   1      43.996  32.121  47.602  0.00  0.00     0.032 C 
ENDBRANCH  24  25
ENDBRANCH  22  24
ENDBRANCH   4  18
BRANCH   1  31
HETATM   31  C   UNK N   1      40.549  40.173  53.811  0.00  0.00     0.272 C 
HETATM   32  O   UNK N   1      40.086  41.235  53.420  0.00  0.00    -0.266 OA
HETATM   33  N   UNK N   1      40.318  39.765  55.106  0.00  0.00    -0.343 N 
HETATM   34  C   UNK N   1      39.352  40.448  55.953  0.00  0.00     0.152 C 
HETATM   35  C   UNK N   1      41.040  38.669  55.740  0.00  0.00     0.152 C 
HETATM   36  C   UNK N   1      38.412  39.372  56.524  0.00  0.00     0.187 C 
HETATM   37  O   UNK N   1      39.152  38.394  57.239  0.00  0.00    -0.388 OA
HETATM   38  C   UNK N   1      40.027  37.703  56.359  0.00  0.00     0.187 C 
ENDBRANCH   1  31
TORSDOF 4
ENDMDL
