MODEL 1
REMARK VINA RESULT:      -9.6      0.000      0.000
REMARK  3 active torsions:
REMARK  status: ('A' for Active; 'I' for Inactive)
REMARK    1  A    between atoms: C_6  and  N_7 
REMARK    2  A    between atoms: C_11  and  N_12 
REMARK    3  A    between atoms: C_15  and  C_16 
REMARK       I    between atoms: C_16  and  N_18 
ROOT
HETATM    1  N   UNK N   1      42.274  36.478  49.004  0.00  0.00    -0.284 N 
HETATM    2  N   UNK N   1      40.980  36.747  48.893  0.00  0.00    -0.292 N 
ATOM      3  HN  UNK N   1      40.313  36.214  48.334  1.00  0.00     0.187 HD
HETATM    4  C   UNK N   1      40.683  37.830  49.630  0.00  0.00     0.126 A 
HETATM    5  C   UNK N   1      41.839  38.272  50.254  0.00  0.00     0.019 A 
HETATM    6  C   UNK N   1      42.856  37.414  49.807  0.00  0.00     0.072 A 
HETATM    7  C   UNK N   1      44.317  37.539  50.192  0.00  0.00     0.014 A 
HETATM    8  C   UNK N   1      45.362  37.028  49.392  0.00  0.00     0.015 A 
HETATM    9  C   UNK N   1      46.697  37.182  49.778  0.00  0.00     0.001 A 
HETATM   10  C   UNK N   1      47.018  37.850  50.960  0.00  0.00     0.002 A 
HETATM   11  C   UNK N   1      46.004  38.394  51.747  0.00  0.00     0.024 A 
HETATM   12  C   UNK N   1      44.668  38.253  51.359  0.00  0.00     0.072 A 
HETATM   13  S   UNK N   1      43.370  39.008  52.297  0.00  0.00     0.180 S 
HETATM   14  O   UNK N   1      42.951  38.058  53.430  0.00  0.00    -0.222 OA
HETATM   15  O   UNK N   1      43.865  40.243  53.063  0.00  0.00    -0.222 OA
HETATM   16  C   UNK N   1      41.950  39.389  51.259  0.00  0.00     0.189 C 
ENDROOT
BRANCH   1  17
HETATM   17  C   UNK N   1      42.828  35.247  48.417  0.00  0.00     0.137 C 
HETATM   18  C   UNK N   1      42.628  34.071  49.380  0.00  0.00     0.031 C 
HETATM   19  C   UNK N   1      43.331  32.810  48.833  0.00  0.00     0.032 C 
HETATM   20  C   UNK N   1      43.394  32.801  47.293  0.00  0.00     0.273 C 
HETATM   21  N   UNK N   1      42.187  33.440  46.748  0.00  0.00     0.097 N 
HETATM   22  C   UNK N   1      42.113  34.894  47.074  0.00  0.00     0.300 C 
BRANCH  21  23
HETATM   23  C   UNK N   1      41.884  33.053  45.347  0.00  0.00     0.251 C 
HETATM   24  C   UNK N   1      42.991  32.204  44.685  0.00  0.00     0.039 C 
HETATM   25  C   UNK N   1      42.549  31.813  43.272  0.00  0.00     0.032 C 
HETATM   26  C   UNK N   1      42.231  33.069  42.453  0.00  0.00     0.272 C 
HETATM   27  N   UNK N   1      41.164  33.852  43.113  0.00  0.00     0.086 N 
HETATM   28  C   UNK N   1      40.807  35.018  42.292  0.00  0.00     0.310 C 
HETATM   29  C   UNK N   1      41.580  34.284  44.464  0.00  0.00     0.307 C 
ENDBRANCH  21  23
ENDBRANCH   1  17
BRANCH   4  30
HETATM   30  C   UNK N   1      39.319  38.440  49.727  0.00  0.00     0.272 C 
HETATM   31  O   UNK N   1      39.076  39.404  49.015  0.00  0.00    -0.266 OA
HETATM   32  N   UNK N   1      38.337  37.965  50.574  0.00  0.00    -0.343 N 
HETATM   33  C   UNK N   1      36.979  38.513  50.444  0.00  0.00     0.152 C 
HETATM   34  C   UNK N   1      38.598  36.841  51.480  0.00  0.00     0.152 C 
HETATM   35  C   UNK N   1      36.022  38.067  51.554  0.00  0.00     0.187 C 
HETATM   36  O   UNK N   1      36.223  36.709  51.877  0.00  0.00    -0.388 OA
HETATM   37  C   UNK N   1      37.484  36.624  52.504  0.00  0.00     0.187 C 
ENDBRANCH   4  30
TORSDOF 3
ENDMDL
MODEL 2
REMARK VINA RESULT:      -8.5      4.338      7.384
REMARK  3 active torsions:
REMARK  status: ('A' for Active; 'I' for Inactive)
REMARK    1  A    between atoms: C_6  and  N_7 
REMARK    2  A    between atoms: C_11  and  N_12 
REMARK    3  A    between atoms: C_15  and  C_16 
REMARK       I    between atoms: C_16  and  N_18 
ROOT
HETATM    1  N   UNK N   1      40.510  38.246  51.598  0.00  0.00    -0.284 N 
HETATM    2  N   UNK N   1      40.673  39.187  52.518  0.00  0.00    -0.292 N 
ATOM      3  HN  UNK N   1      41.530  39.718  52.673  1.00  0.00     0.187 HD
HETATM    4  C   UNK N   1      39.533  39.331  53.216  0.00  0.00     0.126 A 
HETATM    5  C   UNK N   1      38.590  38.450  52.712  0.00  0.00     0.019 A 
HETATM    6  C   UNK N   1      39.249  37.735  51.700  0.00  0.00     0.072 A 
HETATM    7  C   UNK N   1      38.623  36.619  50.888  0.00  0.00     0.014 A 
HETATM    8  C   UNK N   1      39.387  35.610  50.262  0.00  0.00     0.015 A 
HETATM    9  C   UNK N   1      38.765  34.589  49.537  0.00  0.00     0.001 A 
HETATM   10  C   UNK N   1      37.375  34.549  49.426  0.00  0.00     0.002 A 
HETATM   11  C   UNK N   1      36.599  35.514  50.065  0.00  0.00     0.024 A 
HETATM   12  C   UNK N   1      37.216  36.530  50.802  0.00  0.00     0.072 A 
HETATM   13  S   UNK N   1      36.249  37.715  51.692  0.00  0.00     0.180 S 
HETATM   14  O   UNK N   1      35.880  38.872  50.751  0.00  0.00    -0.222 OA
HETATM   15  O   UNK N   1      34.875  37.152  52.083  0.00  0.00    -0.222 OA
HETATM   16  C   UNK N   1      37.143  38.349  53.121  0.00  0.00     0.189 C 
ENDROOT
BRANCH   1  17
HETATM   17  C   UNK N   1      41.560  38.000  50.596  0.00  0.00     0.137 C 
HETATM   18  C   UNK N   1      41.537  39.103  49.531  0.00  0.00     0.031 C 
HETATM   19  C   UNK N   1      42.540  38.776  48.404  0.00  0.00     0.032 C 
HETATM   20  C   UNK N   1      43.735  37.944  48.912  0.00  0.00     0.273 C 
HETATM   21  N   UNK N   1      44.061  38.342  50.289  0.00  0.00     0.097 N 
HETATM   22  C   UNK N   1      42.975  37.999  51.255  0.00  0.00     0.300 C 
BRANCH  21  23
HETATM   23  C   UNK N   1      45.448  38.009  50.697  0.00  0.00     0.251 C 
HETATM   24  C   UNK N   1      45.824  38.531  52.101  0.00  0.00     0.039 C 
HETATM   25  C   UNK N   1      47.247  38.081  52.441  0.00  0.00     0.032 C 
HETATM   26  C   UNK N   1      48.227  38.575  51.371  0.00  0.00     0.272 C 
HETATM   27  N   UNK N   1      47.840  38.050  50.045  0.00  0.00     0.086 N 
HETATM   28  C   UNK N   1      48.819  38.462  49.029  0.00  0.00     0.310 C 
HETATM   29  C   UNK N   1      46.486  38.506  49.666  0.00  0.00     0.307 C 
ENDBRANCH  21  23
ENDBRANCH   1  17
BRANCH   4  30
HETATM   30  C   UNK N   1      39.354  40.288  54.353  0.00  0.00     0.272 C 
HETATM   31  O   UNK N   1      39.129  41.459  54.079  0.00  0.00    -0.266 OA
HETATM   32  N   UNK N   1      39.431  39.911  55.679  0.00  0.00    -0.343 N 
HETATM   33  C   UNK N   1      39.046  40.888  56.706  0.00  0.00     0.152 C 
HETATM   34  C   UNK N   1      39.746  38.527  56.055  0.00  0.00     0.152 C 
HETATM   35  C   UNK N   1      39.356  40.439  58.138  0.00  0.00     0.187 C 
HETATM   36  O   UNK N   1      39.075  39.067  58.307  0.00  0.00    -0.388 OA
HETATM   37  C   UNK N   1      40.031  38.361  57.547  0.00  0.00     0.187 C 
ENDBRANCH   4  30
TORSDOF 3
ENDMDL
MODEL 3
REMARK VINA RESULT:      -8.3      3.405      7.469
REMARK  3 active torsions:
REMARK  status: ('A' for Active; 'I' for Inactive)
REMARK    1  A    between atoms: C_6  and  N_7 
REMARK    2  A    between atoms: C_11  and  N_12 
REMARK    3  A    between atoms: C_15  and  C_16 
REMARK       I    between atoms: C_16  and  N_18 
ROOT
HETATM    1  N   UNK N   1      42.215  35.324  49.005  0.00  0.00    -0.284 N 
HETATM    2  N   UNK N   1      40.988  35.506  49.473  0.00  0.00    -0.292 N 
ATOM      3  HN  UNK N   1      40.749  36.052  50.301  1.00  0.00     0.187 HD
HETATM    4  C   UNK N   1      40.110  34.860  48.688  0.00  0.00     0.126 A 
HETATM    5  C   UNK N   1      40.804  34.243  47.660  0.00  0.00     0.019 A 
HETATM    6  C   UNK N   1      42.157  34.521  47.904  0.00  0.00     0.072 A 
HETATM    7  C   UNK N   1      43.306  34.010  47.058  0.00  0.00     0.014 A 
HETATM    8  C   UNK N   1      44.618  33.865  47.560  0.00  0.00     0.015 A 
HETATM    9  C   UNK N   1      45.644  33.373  46.747  0.00  0.00     0.001 A 
HETATM   10  C   UNK N   1      45.384  33.009  45.425  0.00  0.00     0.002 A 
HETATM   11  C   UNK N   1      44.089  33.109  44.919  0.00  0.00     0.024 A 
HETATM   12  C   UNK N   1      43.058  33.591  45.732  0.00  0.00     0.072 A 
HETATM   13  S   UNK N   1      41.391  33.645  45.139  0.00  0.00     0.180 S 
HETATM   14  O   UNK N   1      41.168  34.967  44.387  0.00  0.00    -0.222 OA
HETATM   15  O   UNK N   1      41.140  32.595  44.048  0.00  0.00    -0.222 OA
HETATM   16  C   UNK N   1      40.210  33.502  46.490  0.00  0.00     0.189 C 
ENDROOT
BRANCH   1  17
HETATM   17  C   UNK N   1      43.350  36.055  49.594  0.00  0.00     0.137 C 
HETATM   18  C   UNK N   1      43.752  37.221  48.682  0.00  0.00     0.031 C 
HETATM   19  C   UNK N   1      45.027  37.904  49.223  0.00  0.00     0.032 C 
HETATM   20  C   UNK N   1      45.144  37.787  50.756  0.00  0.00     0.273 C 
HETATM   21  N   UNK N   1      43.802  37.831  51.356  0.00  0.00     0.097 N 
HETATM   22  C   UNK N   1      42.973  36.645  50.989  0.00  0.00     0.300 C 
BRANCH  21  23
HETATM   23  C   UNK N   1      43.797  38.234  52.785  0.00  0.00     0.251 C 
HETATM   24  C   UNK N   1      42.515  38.979  53.214  0.00  0.00     0.039 C 
HETATM   25  C   UNK N   1      42.592  39.292  54.711  0.00  0.00     0.032 C 
HETATM   26  C   UNK N   1      43.852  40.109  55.015  0.00  0.00     0.272 C 
HETATM   27  N   UNK N   1      45.057  39.362  54.598  0.00  0.00     0.086 N 
HETATM   28  C   UNK N   1      46.270  40.112  54.955  0.00  0.00     0.310 C 
HETATM   29  C   UNK N   1      45.035  39.085  53.146  0.00  0.00     0.307 C 
ENDBRANCH  21  23
ENDBRANCH   1  17
BRANCH   4  30
HETATM   30  C   UNK N   1      38.632  34.824  48.926  0.00  0.00     0.272 C 
HETATM   31  O   UNK N   1      37.932  34.303  48.068  0.00  0.00    -0.266 OA
HETATM   32  N   UNK N   1      38.034  35.346  50.056  0.00  0.00    -0.343 N 
HETATM   33  C   UNK N   1      36.605  35.080  50.275  0.00  0.00     0.152 C 
HETATM   34  C   UNK N   1      38.829  36.021  51.089  0.00  0.00     0.152 C 
HETATM   35  C   UNK N   1      36.001  35.865  51.444  0.00  0.00     0.187 C 
HETATM   36  O   UNK N   1      36.899  35.921  52.531  0.00  0.00    -0.388 OA
HETATM   37  C   UNK N   1      37.972  36.743  52.128  0.00  0.00     0.187 C 
ENDBRANCH   4  30
TORSDOF 3
ENDMDL
MODEL 4
REMARK VINA RESULT:      -8.3      4.529      8.821
REMARK  3 active torsions:
REMARK  status: ('A' for Active; 'I' for Inactive)
REMARK    1  A    between atoms: C_6  and  N_7 
REMARK    2  A    between atoms: C_11  and  N_12 
REMARK    3  A    between atoms: C_15  and  C_16 
REMARK       I    between atoms: C_16  and  N_18 
ROOT
HETATM    1  N   UNK N   1      41.740  38.751  52.775  0.00  0.00    -0.284 N 
HETATM    2  N   UNK N   1      40.415  38.703  52.779  0.00  0.00    -0.292 N 
ATOM      3  HN  UNK N   1      39.822  38.886  53.588  1.00  0.00     0.187 HD
HETATM    4  C   UNK N   1      39.976  38.373  51.553  0.00  0.00     0.126 A 
HETATM    5  C   UNK N   1      41.070  38.214  50.718  0.00  0.00     0.019 A 
HETATM    6  C   UNK N   1      42.194  38.423  51.531  0.00  0.00     0.072 A 
HETATM    7  C   UNK N   1      43.630  38.308  51.060  0.00  0.00     0.014 A 
HETATM    8  C   UNK N   1      44.701  38.027  51.936  0.00  0.00     0.015 A 
HETATM    9  C   UNK N   1      46.008  37.912  51.453  0.00  0.00     0.001 A 
HETATM   10  C   UNK N   1      46.274  38.068  50.093  0.00  0.00     0.002 A 
HETATM   11  C   UNK N   1      45.228  38.309  49.204  0.00  0.00     0.024 A 
HETATM   12  C   UNK N   1      43.917  38.413  49.681  0.00  0.00     0.072 A 
HETATM   13  S   UNK N   1      42.564  38.634  48.561  0.00  0.00     0.180 S 
HETATM   14  O   UNK N   1      42.386  40.134  48.278  0.00  0.00    -0.222 OA
HETATM   15  O   UNK N   1      42.877  38.067  47.169  0.00  0.00    -0.222 OA
HETATM   16  C   UNK N   1      41.040  37.952  49.234  0.00  0.00     0.189 C 
ENDROOT
BRANCH   1  17
HETATM   17  C   UNK N   1      42.468  39.242  53.957  0.00  0.00     0.137 C 
HETATM   18  C   UNK N   1      42.951  40.677  53.717  0.00  0.00     0.031 C 
HETATM   19  C   UNK N   1      43.833  41.146  54.894  0.00  0.00     0.032 C 
HETATM   20  C   UNK N   1      43.444  40.463  56.220  0.00  0.00     0.273 C 
HETATM   21  N   UNK N   1      41.992  40.235  56.248  0.00  0.00     0.097 N 
HETATM   22  C   UNK N   1      41.549  39.250  55.219  0.00  0.00     0.300 C 
BRANCH  21  23
HETATM   23  C   UNK N   1      41.437  40.069  57.615  0.00  0.00     0.251 C 
HETATM   24  C   UNK N   1      40.310  39.018  57.703  0.00  0.00     0.039 C 
HETATM   25  C   UNK N   1      39.855  38.887  59.159  0.00  0.00     0.032 C 
HETATM   26  C   UNK N   1      39.405  40.250  59.696  0.00  0.00     0.272 C 
HETATM   27  N   UNK N   1      40.510  41.226  59.602  0.00  0.00     0.086 N 
HETATM   28  C   UNK N   1      40.102  42.514  60.183  0.00  0.00     0.310 C 
HETATM   29  C   UNK N   1      40.940  41.410  58.200  0.00  0.00     0.307 C 
ENDBRANCH  21  23
ENDBRANCH   1  17
BRANCH   4  30
HETATM   30  C   UNK N   1      38.534  38.201  51.190  0.00  0.00     0.272 C 
HETATM   31  O   UNK N   1      38.017  39.064  50.493  0.00  0.00    -0.266 OA
HETATM   32  N   UNK N   1      37.772  37.126  51.603  0.00  0.00    -0.343 N 
HETATM   33  C   UNK N   1      36.430  36.959  51.027  0.00  0.00     0.152 C 
HETATM   34  C   UNK N   1      38.336  36.092  52.479  0.00  0.00     0.152 C 
HETATM   35  C   UNK N   1      35.601  35.857  51.697  0.00  0.00     0.187 C 
HETATM   36  O   UNK N   1      36.402  34.735  51.995  0.00  0.00    -0.388 OA
HETATM   37  C   UNK N   1      37.283  35.128  53.024  0.00  0.00     0.187 C 
ENDBRANCH   4  30
TORSDOF 3
ENDMDL
MODEL 5
REMARK VINA RESULT:      -8.1      5.720     10.143
REMARK  3 active torsions:
REMARK  status: ('A' for Active; 'I' for Inactive)
REMARK    1  A    between atoms: C_6  and  N_7 
REMARK    2  A    between atoms: C_11  and  N_12 
REMARK    3  A    between atoms: C_15  and  C_16 
REMARK       I    between atoms: C_16  and  N_18 
ROOT
HETATM    1  N   UNK N   1      39.504  33.076  43.673  0.00  0.00    -0.284 N 
HETATM    2  N   UNK N   1      40.358  32.445  44.466  0.00  0.00    -0.292 N 
ATOM      3  HN  UNK N   1      40.130  32.038  45.373  1.00  0.00     0.187 HD
HETATM    4  C   UNK N   1      41.572  32.425  43.890  0.00  0.00     0.126 A 
HETATM    5  C   UNK N   1      41.491  33.064  42.662  0.00  0.00     0.019 A 
HETATM    6  C   UNK N   1      40.164  33.509  42.561  0.00  0.00     0.072 A 
HETATM    7  C   UNK N   1      39.611  34.307  41.396  0.00  0.00     0.014 A 
HETATM    8  C   UNK N   1      38.484  35.149  41.515  0.00  0.00     0.015 A 
HETATM    9  C   UNK N   1      38.020  35.881  40.417  0.00  0.00     0.001 A 
HETATM   10  C   UNK N   1      38.670  35.794  39.186  0.00  0.00     0.002 A 
HETATM   11  C   UNK N   1      39.806  34.998  39.055  0.00  0.00     0.024 A 
HETATM   12  C   UNK N   1      40.281  34.273  40.153  0.00  0.00     0.072 A 
HETATM   13  S   UNK N   1      41.770  33.323  40.033  0.00  0.00     0.180 S 
HETATM   14  O   UNK N   1      41.432  31.926  39.489  0.00  0.00    -0.222 OA
HETATM   15  O   UNK N   1      42.716  33.879  38.959  0.00  0.00    -0.222 OA
HETATM   16  C   UNK N   1      42.584  33.178  41.632  0.00  0.00     0.189 C 
ENDROOT
BRANCH   1  17
HETATM   17  C   UNK N   1      38.069  33.102  44.001  0.00  0.00     0.137 C 
HETATM   18  C   UNK N   1      37.342  31.975  43.257  0.00  0.00     0.031 C 
HETATM   19  C   UNK N   1      35.818  32.083  43.486  0.00  0.00     0.032 C 
HETATM   20  C   UNK N   1      35.478  32.723  44.846  0.00  0.00     0.273 C 
HETATM   21  N   UNK N   1      36.490  32.334  45.840  0.00  0.00     0.097 N 
HETATM   22  C   UNK N   1      37.839  32.893  45.531  0.00  0.00     0.300 C 
BRANCH  21  23
HETATM   23  C   UNK N   1      36.025  32.447  47.245  0.00  0.00     0.251 C 
HETATM   24  C   UNK N   1      36.945  33.311  48.134  0.00  0.00     0.039 C 
HETATM   25  C   UNK N   1      36.342  33.408  49.538  0.00  0.00     0.032 C 
HETATM   26  C   UNK N   1      36.139  32.006  50.123  0.00  0.00     0.272 C 
HETATM   27  N   UNK N   1      35.249  31.212  49.250  0.00  0.00     0.086 N 
HETATM   28  C   UNK N   1      34.995  29.893  49.846  0.00  0.00     0.310 C 
HETATM   29  C   UNK N   1      35.827  31.061  47.898  0.00  0.00     0.307 C 
ENDBRANCH  21  23
ENDBRANCH   1  17
BRANCH   4  30
HETATM   30  C   UNK N   1      42.792  31.816  44.508  0.00  0.00     0.272 C 
HETATM   31  O   UNK N   1      43.190  30.754  44.051  0.00  0.00    -0.266 OA
HETATM   32  N   UNK N   1      43.477  32.395  45.559  0.00  0.00    -0.343 N 
HETATM   33  C   UNK N   1      44.767  31.813  45.955  0.00  0.00     0.152 C 
HETATM   34  C   UNK N   1      43.009  33.644  46.171  0.00  0.00     0.152 C 
HETATM   35  C   UNK N   1      45.342  32.402  47.248  0.00  0.00     0.187 C 
HETATM   36  O   UNK N   1      45.133  33.796  47.302  0.00  0.00    -0.388 OA
HETATM   37  C   UNK N   1      43.745  33.991  47.464  0.00  0.00     0.187 C 
ENDBRANCH   4  30
TORSDOF 3
ENDMDL
MODEL 6
REMARK VINA RESULT:      -7.8      3.358      8.070
REMARK  3 active torsions:
REMARK  status: ('A' for Active; 'I' for Inactive)
REMARK    1  A    between atoms: C_6  and  N_7 
REMARK    2  A    between atoms: C_11  and  N_12 
REMARK    3  A    between atoms: C_15  and  C_16 
REMARK       I    between atoms: C_16  and  N_18 
ROOT
HETATM    1  N   UNK N   1      40.119  35.054  49.516  0.00  0.00    -0.284 N 
HETATM    2  N   UNK N   1      40.614  33.978  48.921  0.00  0.00    -0.292 N 
ATOM      3  HN  UNK N   1      40.086  33.135  48.694  1.00  0.00     0.187 HD
HETATM    4  C   UNK N   1      41.919  34.168  48.665  0.00  0.00     0.126 A 
HETATM    5  C   UNK N   1      42.277  35.433  49.104  0.00  0.00     0.019 A 
HETATM    6  C   UNK N   1      41.116  35.969  49.683  0.00  0.00     0.072 A 
HETATM    7  C   UNK N   1      41.036  37.330  50.345  0.00  0.00     0.014 A 
HETATM    8  C   UNK N   1      40.068  37.646  51.324  0.00  0.00     0.015 A 
HETATM    9  C   UNK N   1      40.043  38.911  51.922  0.00  0.00     0.001 A 
HETATM   10  C   UNK N   1      40.981  39.879  51.563  0.00  0.00     0.002 A 
HETATM   11  C   UNK N   1      41.967  39.578  50.625  0.00  0.00     0.024 A 
HETATM   12  C   UNK N   1      42.003  38.311  50.034  0.00  0.00     0.072 A 
HETATM   13  S   UNK N   1      43.297  37.878  48.906  0.00  0.00     0.180 S 
HETATM   14  O   UNK N   1      42.900  38.327  47.490  0.00  0.00    -0.222 OA
HETATM   15  O   UNK N   1      44.575  38.688  49.166  0.00  0.00    -0.222 OA
HETATM   16  C   UNK N   1      43.612  36.106  48.921  0.00  0.00     0.189 C 
ENDROOT
BRANCH   1  17
HETATM   17  C   UNK N   1      38.672  35.165  49.764  0.00  0.00     0.137 C 
HETATM   18  C   UNK N   1      37.900  34.315  48.749  0.00  0.00     0.031 C 
HETATM   19  C   UNK N   1      36.380  34.536  48.915  0.00  0.00     0.032 C 
HETATM   20  C   UNK N   1      36.000  34.898  50.364  0.00  0.00     0.273 C 
HETATM   21  N   UNK N   1      36.892  34.192  51.297  0.00  0.00     0.097 N 
HETATM   22  C   UNK N   1      38.307  34.653  51.194  0.00  0.00     0.300 C 
BRANCH  21  23
HETATM   23  C   UNK N   1      36.334  34.045  52.665  0.00  0.00     0.251 C 
HETATM   24  C   UNK N   1      35.048  34.866  52.901  0.00  0.00     0.039 C 
HETATM   25  C   UNK N   1      34.531  34.595  54.316  0.00  0.00     0.032 C 
HETATM   26  C   UNK N   1      35.615  34.927  55.348  0.00  0.00     0.272 C 
HETATM   27  N   UNK N   1      36.825  34.118  55.094  0.00  0.00     0.086 N 
HETATM   28  C   UNK N   1      37.839  34.383  56.125  0.00  0.00     0.310 C 
HETATM   29  C   UNK N   1      37.377  34.393  53.751  0.00  0.00     0.307 C 
ENDBRANCH  21  23
ENDBRANCH   1  17
BRANCH   4  30
HETATM   30  C   UNK N   1      42.811  33.154  48.021  0.00  0.00     0.272 C 
HETATM   31  O   UNK N   1      43.455  32.416  48.754  0.00  0.00    -0.266 OA
HETATM   32  N   UNK N   1      42.936  33.016  46.652  0.00  0.00    -0.343 N 
HETATM   33  C   UNK N   1      43.684  31.863  46.132  0.00  0.00     0.152 C 
HETATM   34  C   UNK N   1      42.220  33.909  45.734  0.00  0.00     0.152 C 
HETATM   35  C   UNK N   1      43.931  31.914  44.621  0.00  0.00     0.187 C 
HETATM   36  O   UNK N   1      42.795  32.401  43.941  0.00  0.00    -0.388 OA
HETATM   37  C   UNK N   1      42.673  33.765  44.281  0.00  0.00     0.187 C 
ENDBRANCH   4  30
TORSDOF 3
ENDMDL
MODEL 7
REMARK VINA RESULT:      -7.8      5.669      9.848
REMARK  3 active torsions:
REMARK  status: ('A' for Active; 'I' for Inactive)
REMARK    1  A    between atoms: C_6  and  N_7 
REMARK    2  A    between atoms: C_11  and  N_12 
REMARK    3  A    between atoms: C_15  and  C_16 
REMARK       I    between atoms: C_16  and  N_18 
ROOT
HETATM    1  N   UNK N   1      38.652  33.176  45.190  0.00  0.00    -0.284 N 
HETATM    2  N   UNK N   1      39.508  33.354  46.187  0.00  0.00    -0.292 N 
ATOM      3  HN  UNK N   1      39.333  33.117  47.164  1.00  0.00     0.187 HD
HETATM    4  C   UNK N   1      40.642  33.896  45.711  0.00  0.00     0.126 A 
HETATM    5  C   UNK N   1      40.513  34.062  44.341  0.00  0.00     0.019 A 
HETATM    6  C   UNK N   1      39.214  33.631  44.034  0.00  0.00     0.072 A 
HETATM    7  C   UNK N   1      38.600  33.670  42.648  0.00  0.00     0.014 A 
HETATM    8  C   UNK N   1      37.206  33.716  42.432  0.00  0.00     0.015 A 
HETATM    9  C   UNK N   1      36.685  33.769  41.135  0.00  0.00     0.001 A 
HETATM   10  C   UNK N   1      37.539  33.782  40.032  0.00  0.00     0.002 A 
HETATM   11  C   UNK N   1      38.920  33.773  40.222  0.00  0.00     0.024 A 
HETATM   12  C   UNK N   1      39.445  33.733  41.518  0.00  0.00     0.072 A 
HETATM   13  S   UNK N   1      41.193  33.807  41.786  0.00  0.00     0.180 S 
HETATM   14  O   UNK N   1      41.776  32.387  41.702  0.00  0.00    -0.222 OA
HETATM   15  O   UNK N   1      41.915  34.531  40.641  0.00  0.00    -0.222 OA
HETATM   16  C   UNK N   1      41.579  34.534  43.387  0.00  0.00     0.189 C 
ENDROOT
BRANCH   1  17
HETATM   17  C   UNK N   1      37.389  32.454  45.418  0.00  0.00     0.137 C 
HETATM   18  C   UNK N   1      37.516  31.009  44.921  0.00  0.00     0.031 C 
HETATM   19  C   UNK N   1      36.154  30.288  45.028  0.00  0.00     0.032 C 
HETATM   20  C   UNK N   1      35.289  30.847  46.175  0.00  0.00     0.273 C 
HETATM   21  N   UNK N   1      36.155  31.256  47.290  0.00  0.00     0.097 N 
HETATM   22  C   UNK N   1      37.034  32.409  46.937  0.00  0.00     0.300 C 
BRANCH  21  23
HETATM   23  C   UNK N   1      35.458  31.322  48.598  0.00  0.00     0.251 C 
HETATM   24  C   UNK N   1      36.321  31.917  49.732  0.00  0.00     0.039 C 
HETATM   25  C   UNK N   1      35.487  31.994  51.013  0.00  0.00     0.032 C 
HETATM   26  C   UNK N   1      34.951  30.605  51.377  0.00  0.00     0.272 C 
HETATM   27  N   UNK N   1      34.125  30.072  50.274  0.00  0.00     0.086 N 
HETATM   28  C   UNK N   1      33.550  28.772  50.650  0.00  0.00     0.310 C 
HETATM   29  C   UNK N   1      34.916  29.942  49.032  0.00  0.00     0.307 C 
ENDBRANCH  21  23
ENDBRANCH   1  17
BRANCH   4  30
HETATM   30  C   UNK N   1      41.824  34.259  46.554  0.00  0.00     0.272 C 
HETATM   31  O   UNK N   1      41.724  35.237  47.281  0.00  0.00    -0.266 OA
HETATM   32  N   UNK N   1      43.007  33.545  46.547  0.00  0.00    -0.343 N 
HETATM   33  C   UNK N   1      44.025  33.871  47.555  0.00  0.00     0.152 C 
HETATM   34  C   UNK N   1      43.189  32.392  45.656  0.00  0.00     0.152 C 
HETATM   35  C   UNK N   1      45.366  33.163  47.333  0.00  0.00     0.187 C 
HETATM   36  O   UNK N   1      45.168  31.831  46.914  0.00  0.00    -0.388 OA
HETATM   37  C   UNK N   1      44.632  31.892  45.610  0.00  0.00     0.187 C 
ENDBRANCH   4  30
TORSDOF 3
ENDMDL
MODEL 8
REMARK VINA RESULT:      -7.7      2.618      4.158
REMARK  3 active torsions:
REMARK  status: ('A' for Active; 'I' for Inactive)
REMARK    1  A    between atoms: C_6  and  N_7 
REMARK    2  A    between atoms: C_11  and  N_12 
REMARK    3  A    between atoms: C_15  and  C_16 
REMARK       I    between atoms: C_16  and  N_18 
ROOT
HETATM    1  N   UNK N   1      41.011  38.493  51.704  0.00  0.00    -0.284 N 
HETATM    2  N   UNK N   1      39.769  38.222  51.326  0.00  0.00    -0.292 N 
ATOM      3  HN  UNK N   1      39.500  37.827  50.425  1.00  0.00     0.187 HD
HETATM    4  C   UNK N   1      38.920  38.548  52.316  0.00  0.00     0.126 A 
HETATM    5  C   UNK N   1      39.652  39.041  53.384  0.00  0.00     0.019 A 
HETATM    6  C   UNK N   1      40.988  39.034  52.955  0.00  0.00     0.072 A 
HETATM    7  C   UNK N   1      42.158  39.533  53.780  0.00  0.00     0.014 A 
HETATM    8  C   UNK N   1      43.365  39.980  53.199  0.00  0.00     0.015 A 
HETATM    9  C   UNK N   1      44.412  40.449  53.999  0.00  0.00     0.001 A 
HETATM   10  C   UNK N   1      44.277  40.489  55.387  0.00  0.00     0.002 A 
HETATM   11  C   UNK N   1      43.081  40.086  55.980  0.00  0.00     0.024 A 
HETATM   12  C   UNK N   1      42.027  39.628  55.183  0.00  0.00     0.072 A 
HETATM   13  S   UNK N   1      40.471  39.193  55.907  0.00  0.00     0.180 S 
HETATM   14  O   UNK N   1      40.521  37.727  56.365  0.00  0.00    -0.222 OA
HETATM   15  O   UNK N   1      40.224  39.944  57.222  0.00  0.00    -0.222 OA
HETATM   16  C   UNK N   1      39.120  39.425  54.740  0.00  0.00     0.189 C 
ENDROOT
BRANCH   1  17
HETATM   17  C   UNK N   1      42.147  38.084  50.862  0.00  0.00     0.137 C 
HETATM   18  C   UNK N   1      43.237  37.442  51.728  0.00  0.00     0.031 C 
HETATM   19  C   UNK N   1      44.487  37.140  50.873  0.00  0.00     0.032 C 
HETATM   20  C   UNK N   1      44.131  36.861  49.400  0.00  0.00     0.273 C 
HETATM   21  N   UNK N   1      42.832  36.174  49.330  0.00  0.00     0.097 N 
HETATM   22  C   UNK N   1      41.705  37.036  49.793  0.00  0.00     0.300 C 
BRANCH  21  23
HETATM   23  C   UNK N   1      42.621  35.417  48.071  0.00  0.00     0.251 C 
HETATM   24  C   UNK N   1      41.248  34.716  47.992  0.00  0.00     0.039 C 
HETATM   25  C   UNK N   1      41.115  34.019  46.635  0.00  0.00     0.032 C 
HETATM   26  C   UNK N   1      42.270  33.031  46.434  0.00  0.00     0.272 C 
HETATM   27  N   UNK N   1      43.565  33.737  46.509  0.00  0.00     0.086 N 
HETATM   28  C   UNK N   1      44.670  32.804  46.245  0.00  0.00     0.310 C 
HETATM   29  C   UNK N   1      43.743  34.383  47.827  0.00  0.00     0.307 C 
ENDBRANCH  21  23
ENDBRANCH   1  17
BRANCH   4  30
HETATM   30  C   UNK N   1      37.432  38.402  52.235  0.00  0.00     0.272 C 
HETATM   31  O   UNK N   1      36.788  39.361  51.835  0.00  0.00    -0.266 OA
HETATM   32  N   UNK N   1      36.765  37.245  52.589  0.00  0.00    -0.343 N 
HETATM   33  C   UNK N   1      35.331  37.145  52.284  0.00  0.00     0.152 C 
HETATM   34  C   UNK N   1      37.492  36.085  53.119  0.00  0.00     0.152 C 
HETATM   35  C   UNK N   1      34.652  35.914  52.893  0.00  0.00     0.187 C 
HETATM   36  O   UNK N   1      35.488  34.781  52.802  0.00  0.00    -0.388 OA
HETATM   37  C   UNK N   1      36.569  35.004  53.680  0.00  0.00     0.187 C 
ENDBRANCH   4  30
TORSDOF 3
ENDMDL
MODEL 9
REMARK VINA RESULT:      -7.7      5.438      8.865
REMARK  3 active torsions:
REMARK  status: ('A' for Active; 'I' for Inactive)
REMARK    1  A    between atoms: C_6  and  N_7 
REMARK    2  A    between atoms: C_11  and  N_12 
REMARK    3  A    between atoms: C_15  and  C_16 
REMARK       I    between atoms: C_16  and  N_18 
ROOT
HETATM    1  N   UNK N   1      39.395  39.290  53.326  0.00  0.00    -0.284 N 
HETATM    2  N   UNK N   1      39.525  40.486  53.884  0.00  0.00    -0.292 N 
ATOM      3  HN  UNK N   1      40.407  40.980  54.020  1.00  0.00     0.187 HD
HETATM    4  C   UNK N   1      38.314  40.946  54.242  0.00  0.00     0.126 A 
HETATM    5  C   UNK N   1      37.360  40.007  53.886  0.00  0.00     0.019 A 
HETATM    6  C   UNK N   1      38.079  38.935  53.336  0.00  0.00     0.072 A 
HETATM    7  C   UNK N   1      37.455  37.645  52.841  0.00  0.00     0.014 A 
HETATM    8  C   UNK N   1      38.171  36.430  52.766  0.00  0.00     0.015 A 
HETATM    9  C   UNK N   1      37.549  35.260  52.320  0.00  0.00     0.001 A 
HETATM   10  C   UNK N   1      36.204  35.274  51.948  0.00  0.00     0.002 A 
HETATM   11  C   UNK N   1      35.467  36.453  52.048  0.00  0.00     0.024 A 
HETATM   12  C   UNK N   1      36.083  37.623  52.505  0.00  0.00     0.072 A 
HETATM   13  S   UNK N   1      35.147  39.110  52.722  0.00  0.00     0.180 S 
HETATM   14  O   UNK N   1      35.099  39.873  51.388  0.00  0.00    -0.222 OA
HETATM   15  O   UNK N   1      33.665  38.816  52.990  0.00  0.00    -0.222 OA
HETATM   16  C   UNK N   1      35.865  40.154  54.000  0.00  0.00     0.189 C 
ENDROOT
BRANCH   1  17
HETATM   17  C   UNK N   1      40.557  38.632  52.704  0.00  0.00     0.137 C 
HETATM   18  C   UNK N   1      40.691  39.077  51.243  0.00  0.00     0.031 C 
HETATM   19  C   UNK N   1      41.820  38.286  50.547  0.00  0.00     0.032 C 
HETATM   20  C   UNK N   1      42.922  37.855  51.535  0.00  0.00     0.273 C 
HETATM   21  N   UNK N   1      43.083  38.885  52.572  0.00  0.00     0.097 N 
HETATM   22  C   UNK N   1      41.878  39.010  53.444  0.00  0.00     0.300 C 
BRANCH  21  23
HETATM   23  C   UNK N   1      44.401  38.850  53.254  0.00  0.00     0.251 C 
HETATM   24  C   UNK N   1      44.690  40.103  54.109  0.00  0.00     0.039 C 
HETATM   25  C   UNK N   1      46.041  39.933  54.809  0.00  0.00     0.032 C 
HETATM   26  C   UNK N   1      47.144  39.684  53.775  0.00  0.00     0.272 C 
HETATM   27  N   UNK N   1      46.837  38.476  52.982  0.00  0.00     0.086 N 
HETATM   28  C   UNK N   1      47.929  38.194  52.039  0.00  0.00     0.310 C 
HETATM   29  C   UNK N   1      45.559  38.627  52.255  0.00  0.00     0.307 C 
ENDBRANCH  21  23
ENDBRANCH   1  17
BRANCH   4  30
HETATM   30  C   UNK N   1      38.077  42.257  54.924  0.00  0.00     0.272 C 
HETATM   31  O   UNK N   1      37.880  43.237  54.218  0.00  0.00    -0.266 OA
HETATM   32  N   UNK N   1      38.070  42.406  56.297  0.00  0.00    -0.343 N 
HETATM   33  C   UNK N   1      37.632  43.692  56.857  0.00  0.00     0.152 C 
HETATM   34  C   UNK N   1      38.347  41.269  57.182  0.00  0.00     0.152 C 
HETATM   35  C   UNK N   1      37.851  43.817  58.369  0.00  0.00     0.187 C 
HETATM   36  O   UNK N   1      37.546  42.605  59.023  0.00  0.00    -0.388 OA
HETATM   37  C   UNK N   1      38.539  41.678  58.642  0.00  0.00     0.187 C 
ENDBRANCH   4  30
TORSDOF 3
ENDMDL
