MODEL 1
REMARK VINA RESULT:      -8.8      0.000      0.000
REMARK  5 active torsions:
REMARK  status: ('A' for Active; 'I' for Inactive)
REMARK    1  A    between atoms: C_2  and  C_3 
REMARK       I    between atoms: C_2  and  N_32 
REMARK    2  A    between atoms: N_6  and  C_7 
REMARK    3  A    between atoms: N_11  and  C_12 
REMARK    4  A    between atoms: C_12  and  C_13 
REMARK    5  A    between atoms: C_13  and  N_14 
ROOT
HETATM    1  C   UNK N   1      41.039  37.798  49.861  0.00  0.00     0.126 A 
HETATM    2  N   UNK N   1      41.302  36.710  49.123  0.00  0.00    -0.292 N 
ATOM      3  HN  UNK N   1      40.605  36.161  48.621  1.00  0.00     0.187 HD
HETATM    4  N   UNK N   1      42.602  36.451  49.140  0.00  0.00    -0.284 N 
HETATM    5  C   UNK N   1      43.228  37.408  49.903  0.00  0.00     0.072 A 
HETATM    6  C   UNK N   1      42.228  38.262  50.397  0.00  0.00     0.019 A 
HETATM    7  C   UNK N   1      42.424  39.417  51.343  0.00  0.00     0.189 C 
HETATM    8  S   UNK N   1      43.734  38.892  52.458  0.00  0.00     0.180 S 
HETATM    9  O   UNK N   1      43.233  37.840  53.460  0.00  0.00    -0.222 OA
HETATM   10  O   UNK N   1      44.227  40.038  53.354  0.00  0.00    -0.222 OA
HETATM   11  C   UNK N   1      45.046  38.220  51.471  0.00  0.00     0.072 A 
HETATM   12  C   UNK N   1      46.384  38.379  51.848  0.00  0.00     0.024 A 
HETATM   13  C   UNK N   1      47.401  37.901  51.022  0.00  0.00     0.002 A 
HETATM   14  C   UNK N   1      47.081  37.279  49.818  0.00  0.00     0.001 A 
HETATM   15  C   UNK N   1      45.746  37.112  49.444  0.00  0.00     0.015 A 
HETATM   16  C   UNK N   1      44.697  37.557  50.269  0.00  0.00     0.014 A 
ENDROOT
BRANCH   4  17
HETATM   17  C   UNK N   1      43.058  35.183  48.536  0.00  0.00     0.137 C 
HETATM   18  C   UNK N   1      42.678  33.922  49.327  0.00  0.00     0.031 C 
HETATM   19  C   UNK N   1      43.335  32.710  48.655  0.00  0.00     0.032 C 
HETATM   20  C   UNK N   1      42.956  32.654  47.167  0.00  0.00     0.272 C 
HETATM   21  N   UNK N   1      43.430  33.874  46.467  0.00  0.00     0.092 N 
HETATM   22  C   UNK N   1      42.790  35.080  47.023  0.00  0.00     0.299 C 
BRANCH  21  23
HETATM   23  C   UNK N   1      43.200  33.796  45.006  0.00  0.00     0.302 C 
BRANCH  23  24
HETATM   24  C   UNK N   1      42.427  32.524  44.650  0.00  0.00     0.302 C 
BRANCH  24  25
HETATM   25  N   UNK N   1      41.348  32.794  43.676  0.00  0.00     0.090 N 
HETATM   26  C   UNK N   1      40.835  31.566  43.050  0.00  0.00     0.272 C 
HETATM   27  C   UNK N   1      41.877  31.187  42.020  0.00  0.00     0.032 C 
HETATM   28  C   UNK N   1      42.294  32.535  41.450  0.00  0.00     0.032 C 
HETATM   29  C   UNK N   1      41.842  33.552  42.514  0.00  0.00     0.272 C 
ENDBRANCH  24  25
ENDBRANCH  23  24
ENDBRANCH  21  23
ENDBRANCH   4  17
BRANCH   1  30
HETATM   30  C   UNK N   1      39.692  38.448  49.922  0.00  0.00     0.272 C 
HETATM   31  O   UNK N   1      39.552  39.510  49.332  0.00  0.00    -0.266 OA
HETATM   32  N   UNK N   1      38.586  37.843  50.491  0.00  0.00    -0.343 N 
HETATM   33  C   UNK N   1      38.661  36.707  51.404  0.00  0.00     0.152 C 
HETATM   34  C   UNK N   1      37.240  38.335  50.219  0.00  0.00     0.152 C 
HETATM   35  C   UNK N   1      37.868  37.073  52.670  0.00  0.00     0.187 C 
HETATM   36  O   UNK N   1      36.530  37.413  52.342  0.00  0.00    -0.388 OA
HETATM   37  C   UNK N   1      36.517  38.585  51.545  0.00  0.00     0.187 C 
ENDBRANCH   1  30
TORSDOF 5
ENDMDL
MODEL 2
REMARK VINA RESULT:      -8.5      4.209      7.592
REMARK  5 active torsions:
REMARK  status: ('A' for Active; 'I' for Inactive)
REMARK    1  A    between atoms: C_2  and  C_3 
REMARK       I    between atoms: C_2  and  N_32 
REMARK    2  A    between atoms: N_6  and  C_7 
REMARK    3  A    between atoms: N_11  and  C_12 
REMARK    4  A    between atoms: C_12  and  C_13 
REMARK    5  A    between atoms: C_13  and  N_14 
ROOT
HETATM    1  C   UNK N   1      40.125  39.470  52.802  0.00  0.00     0.126 A 
HETATM    2  N   UNK N   1      41.192  39.386  51.993  0.00  0.00    -0.292 N 
ATOM      3  HN  UNK N   1      42.027  39.966  52.065  1.00  0.00     0.187 HD
HETATM    4  N   UNK N   1      41.001  38.441  51.084  0.00  0.00    -0.284 N 
HETATM    5  C   UNK N   1      39.773  37.863  51.305  0.00  0.00     0.072 A 
HETATM    6  C   UNK N   1      39.188  38.538  52.389  0.00  0.00     0.019 A 
HETATM    7  C   UNK N   1      37.809  38.307  52.949  0.00  0.00     0.189 C 
HETATM    8  S   UNK N   1      36.784  37.919  51.523  0.00  0.00     0.180 S 
HETATM    9  O   UNK N   1      36.497  39.171  50.678  0.00  0.00    -0.222 OA
HETATM   10  O   UNK N   1      35.386  37.429  51.930  0.00  0.00    -0.222 OA
HETATM   11  C   UNK N   1      37.645  36.711  50.551  0.00  0.00     0.072 A 
HETATM   12  C   UNK N   1      36.949  35.715  49.858  0.00  0.00     0.024 A 
HETATM   13  C   UNK N   1      37.650  34.736  49.155  0.00  0.00     0.002 A 
HETATM   14  C   UNK N   1      39.042  34.745  49.157  0.00  0.00     0.001 A 
HETATM   15  C   UNK N   1      39.739  35.743  49.843  0.00  0.00     0.015 A 
HETATM   16  C   UNK N   1      39.061  36.760  50.536  0.00  0.00     0.014 A 
ENDROOT
BRANCH   4  17
HETATM   17  C   UNK N   1      41.988  38.329  49.991  0.00  0.00     0.137 C 
HETATM   18  C   UNK N   1      41.986  39.506  49.003  0.00  0.00     0.031 C 
HETATM   19  C   UNK N   1      42.956  39.182  47.860  0.00  0.00     0.032 C 
HETATM   20  C   UNK N   1      44.344  38.835  48.419  0.00  0.00     0.272 C 
HETATM   21  N   UNK N   1      44.263  37.642  49.298  0.00  0.00     0.092 N 
HETATM   22  C   UNK N   1      43.392  37.904  50.458  0.00  0.00     0.299 C 
BRANCH  21  23
HETATM   23  C   UNK N   1      45.603  37.198  49.751  0.00  0.00     0.302 C 
BRANCH  23  24
HETATM   24  C   UNK N   1      45.983  37.890  51.062  0.00  0.00     0.302 C 
BRANCH  24  25
HETATM   25  N   UNK N   1      47.368  37.566  51.470  0.00  0.00     0.090 N 
HETATM   26  C   UNK N   1      48.121  38.755  51.897  0.00  0.00     0.272 C 
HETATM   27  C   UNK N   1      48.502  39.460  50.612  0.00  0.00     0.032 C 
HETATM   28  C   UNK N   1      48.844  38.304  49.683  0.00  0.00     0.032 C 
HETATM   29  C   UNK N   1      48.169  37.083  50.333  0.00  0.00     0.272 C 
ENDBRANCH  24  25
ENDBRANCH  23  24
ENDBRANCH  21  23
ENDBRANCH   4  17
BRANCH   1  30
HETATM   30  C   UNK N   1      40.085  40.328  54.028  0.00  0.00     0.272 C 
HETATM   31  O   UNK N   1      39.307  41.272  54.029  0.00  0.00    -0.266 OA
HETATM   32  N   UNK N   1      40.777  40.025  55.186  0.00  0.00    -0.343 N 
HETATM   33  C   UNK N   1      41.889  39.080  55.245  0.00  0.00     0.152 C 
HETATM   34  C   UNK N   1      40.440  40.669  56.451  0.00  0.00     0.152 C 
HETATM   35  C   UNK N   1      43.075  39.796  55.911  0.00  0.00     0.187 C 
HETATM   36  O   UNK N   1      42.712  40.281  57.193  0.00  0.00    -0.388 OA
HETATM   37  C   UNK N   1      41.707  41.272  57.062  0.00  0.00     0.187 C 
ENDBRANCH   1  30
TORSDOF 5
ENDMDL
MODEL 3
REMARK VINA RESULT:      -8.4      5.629      9.682
REMARK  5 active torsions:
REMARK  status: ('A' for Active; 'I' for Inactive)
REMARK    1  A    between atoms: C_2  and  C_3 
REMARK       I    between atoms: C_2  and  N_32 
REMARK    2  A    between atoms: N_6  and  C_7 
REMARK    3  A    between atoms: N_11  and  C_12 
REMARK    4  A    between atoms: C_12  and  C_13 
REMARK    5  A    between atoms: C_13  and  N_14 
ROOT
HETATM    1  C   UNK N   1      40.999  33.817  45.494  0.00  0.00     0.126 A 
HETATM    2  N   UNK N   1      39.857  33.344  46.015  0.00  0.00    -0.292 N 
ATOM      3  HN  UNK N   1      39.724  33.085  46.992  1.00  0.00     0.187 HD
HETATM    4  N   UNK N   1      38.927  33.261  45.074  0.00  0.00    -0.284 N 
HETATM    5  C   UNK N   1      39.462  33.709  43.890  0.00  0.00     0.072 A 
HETATM    6  C   UNK N   1      40.804  34.040  44.141  0.00  0.00     0.019 A 
HETATM    7  C   UNK N   1      41.816  34.506  43.128  0.00  0.00     0.189 C 
HETATM    8  S   UNK N   1      41.420  33.604  41.623  0.00  0.00     0.180 S 
HETATM    9  O   UNK N   1      41.838  32.128  41.724  0.00  0.00    -0.222 OA
HETATM   10  O   UNK N   1      42.211  34.121  40.412  0.00  0.00    -0.222 OA
HETATM   11  C   UNK N   1      39.670  33.726  41.364  0.00  0.00     0.072 A 
HETATM   12  C   UNK N   1      39.136  33.799  40.072  0.00  0.00     0.024 A 
HETATM   13  C   UNK N   1      37.763  33.963  39.895  0.00  0.00     0.002 A 
HETATM   14  C   UNK N   1      36.929  34.067  41.005  0.00  0.00     0.001 A 
HETATM   15  C   UNK N   1      37.458  33.987  42.295  0.00  0.00     0.015 A 
HETATM   16  C   UNK N   1      38.835  33.793  42.506  0.00  0.00     0.014 A 
ENDROOT
BRANCH   4  17
HETATM   17  C   UNK N   1      37.659  32.586  45.420  0.00  0.00     0.137 C 
HETATM   18  C   UNK N   1      36.427  33.505  45.435  0.00  0.00     0.031 C 
HETATM   19  C   UNK N   1      35.226  32.698  45.941  0.00  0.00     0.032 C 
HETATM   20  C   UNK N   1      35.047  31.423  45.103  0.00  0.00     0.272 C 
HETATM   21  N   UNK N   1      36.251  30.561  45.211  0.00  0.00     0.092 N 
HETATM   22  C   UNK N   1      37.440  31.254  44.681  0.00  0.00     0.299 C 
BRANCH  21  23
HETATM   23  C   UNK N   1      36.063  29.262  44.523  0.00  0.00     0.302 C 
BRANCH  23  24
HETATM   24  C   UNK N   1      36.176  28.105  45.519  0.00  0.00     0.302 C 
BRANCH  24  25
HETATM   25  N   UNK N   1      37.583  27.831  45.881  0.00  0.00     0.090 N 
HETATM   26  C   UNK N   1      38.028  26.500  45.441  0.00  0.00     0.272 C 
HETATM   27  C   UNK N   1      37.424  25.535  46.438  0.00  0.00     0.032 C 
HETATM   28  C   UNK N   1      37.564  26.282  47.757  0.00  0.00     0.032 C 
HETATM   29  C   UNK N   1      37.762  27.750  47.341  0.00  0.00     0.272 C 
ENDBRANCH  24  25
ENDBRANCH  23  24
ENDBRANCH  21  23
ENDBRANCH   4  17
BRANCH   1  30
HETATM   30  C   UNK N   1      42.196  34.177  46.318  0.00  0.00     0.272 C 
HETATM   31  O   UNK N   1      42.150  35.224  46.949  0.00  0.00    -0.266 OA
HETATM   32  N   UNK N   1      43.273  33.328  46.498  0.00  0.00    -0.343 N 
HETATM   33  C   UNK N   1      43.552  32.177  45.645  0.00  0.00     0.152 C 
HETATM   34  C   UNK N   1      44.234  33.555  47.571  0.00  0.00     0.152 C 
HETATM   35  C   UNK N   1      45.005  32.297  45.159  0.00  0.00     0.187 C 
HETATM   36  O   UNK N   1      45.896  32.381  46.260  0.00  0.00    -0.388 OA
HETATM   37  C   UNK N   1      45.648  33.573  46.986  0.00  0.00     0.187 C 
ENDBRANCH   1  30
TORSDOF 5
ENDMDL
MODEL 4
REMARK VINA RESULT:      -8.1      5.396     10.270
REMARK  5 active torsions:
REMARK  status: ('A' for Active; 'I' for Inactive)
REMARK    1  A    between atoms: C_2  and  C_3 
REMARK       I    between atoms: C_2  and  N_32 
REMARK    2  A    between atoms: N_6  and  C_7 
REMARK    3  A    between atoms: N_11  and  C_12 
REMARK    4  A    between atoms: C_12  and  C_13 
REMARK    5  A    between atoms: C_13  and  N_14 
ROOT
HETATM    1  C   UNK N   1      41.579  32.460  43.669  0.00  0.00     0.126 A 
HETATM    2  N   UNK N   1      40.365  32.474  44.239  0.00  0.00    -0.292 N 
ATOM      3  HN  UNK N   1      40.127  32.014  45.118  1.00  0.00     0.187 HD
HETATM    4  N   UNK N   1      39.519  33.172  43.495  0.00  0.00    -0.284 N 
HETATM    5  C   UNK N   1      40.196  33.653  42.399  0.00  0.00     0.072 A 
HETATM    6  C   UNK N   1      41.515  33.175  42.485  0.00  0.00     0.019 A 
HETATM    7  C   UNK N   1      42.608  33.379  41.470  0.00  0.00     0.189 C 
HETATM    8  S   UNK N   1      41.781  33.335  39.874  0.00  0.00     0.180 S 
HETATM    9  O   UNK N   1      41.361  31.906  39.496  0.00  0.00    -0.222 OA
HETATM   10  O   UNK N   1      42.711  33.754  38.726  0.00  0.00    -0.222 OA
HETATM   11  C   UNK N   1      40.354  34.383  39.977  0.00  0.00     0.072 A 
HETATM   12  C   UNK N   1      39.923  35.125  38.871  0.00  0.00     0.024 A 
HETATM   13  C   UNK N   1      38.840  35.993  38.994  0.00  0.00     0.002 A 
HETATM   14  C   UNK N   1      38.197  36.130  40.222  0.00  0.00     0.001 A 
HETATM   15  C   UNK N   1      38.621  35.385  41.326  0.00  0.00     0.015 A 
HETATM   16  C   UNK N   1      39.692  34.480  41.226  0.00  0.00     0.014 A 
ENDROOT
BRANCH   4  17
HETATM   17  C   UNK N   1      38.091  33.143  43.867  0.00  0.00     0.137 C 
HETATM   18  C   UNK N   1      37.207  32.282  42.951  0.00  0.00     0.031 C 
HETATM   19  C   UNK N   1      35.745  32.462  43.378  0.00  0.00     0.032 C 
HETATM   20  C   UNK N   1      35.583  32.155  44.875  0.00  0.00     0.272 C 
HETATM   21  N   UNK N   1      36.410  33.083  45.684  0.00  0.00     0.092 N 
HETATM   22  C   UNK N   1      37.842  32.920  45.370  0.00  0.00     0.299 C 
BRANCH  21  23
HETATM   23  C   UNK N   1      36.179  32.904  47.137  0.00  0.00     0.302 C 
BRANCH  23  24
HETATM   24  C   UNK N   1      36.508  34.192  47.897  0.00  0.00     0.302 C 
BRANCH  24  25
HETATM   25  N   UNK N   1      37.233  33.915  49.155  0.00  0.00     0.090 N 
HETATM   26  C   UNK N   1      36.602  34.553  50.320  0.00  0.00     0.272 C 
HETATM   27  C   UNK N   1      37.001  36.011  50.233  0.00  0.00     0.032 C 
HETATM   28  C   UNK N   1      38.445  35.936  49.757  0.00  0.00     0.032 C 
HETATM   29  C   UNK N   1      38.573  34.526  49.155  0.00  0.00     0.272 C 
ENDBRANCH  24  25
ENDBRANCH  23  24
ENDBRANCH  21  23
ENDBRANCH   4  17
BRANCH   1  30
HETATM   30  C   UNK N   1      42.796  31.892  44.331  0.00  0.00     0.272 C 
HETATM   31  O   UNK N   1      43.109  30.745  44.043  0.00  0.00    -0.266 OA
HETATM   32  N   UNK N   1      43.638  32.640  45.133  0.00  0.00    -0.343 N 
HETATM   33  C   UNK N   1      43.269  33.922  45.726  0.00  0.00     0.152 C 
HETATM   34  C   UNK N   1      44.978  32.165  45.461  0.00  0.00     0.152 C 
HETATM   35  C   UNK N   1      43.542  33.834  47.236  0.00  0.00     0.187 C 
HETATM   36  O   UNK N   1      44.898  33.497  47.481  0.00  0.00    -0.388 OA
HETATM   37  C   UNK N   1      45.166  32.199  46.979  0.00  0.00     0.187 C 
ENDBRANCH   1  30
TORSDOF 5
ENDMDL
MODEL 5
REMARK VINA RESULT:      -8.0      3.630      6.946
REMARK  5 active torsions:
REMARK  status: ('A' for Active; 'I' for Inactive)
REMARK    1  A    between atoms: C_2  and  C_3 
REMARK       I    between atoms: C_2  and  N_32 
REMARK    2  A    between atoms: N_6  and  C_7 
REMARK    3  A    between atoms: N_11  and  C_12 
REMARK    4  A    between atoms: C_12  and  C_13 
REMARK    5  A    between atoms: C_13  and  N_14 
ROOT
HETATM    1  C   UNK N   1      37.790  36.037  52.823  0.00  0.00     0.126 A 
HETATM    2  N   UNK N   1      38.933  36.214  52.144  0.00  0.00    -0.292 N 
ATOM      3  HN  UNK N   1      39.806  35.721  52.329  1.00  0.00     0.187 HD
HETATM    4  N   UNK N   1      38.763  37.126  51.196  0.00  0.00    -0.284 N 
HETATM    5  C   UNK N   1      37.459  37.558  51.235  0.00  0.00     0.072 A 
HETATM    6  C   UNK N   1      36.831  36.886  52.298  0.00  0.00     0.019 A 
HETATM    7  C   UNK N   1      35.418  37.089  52.775  0.00  0.00     0.189 C 
HETATM    8  S   UNK N   1      35.099  38.847  52.561  0.00  0.00     0.180 S 
HETATM    9  O   UNK N   1      35.835  39.686  53.617  0.00  0.00    -0.222 OA
HETATM   10  O   UNK N   1      33.621  39.200  52.786  0.00  0.00    -0.222 OA
HETATM   11  C   UNK N   1      35.642  39.299  50.935  0.00  0.00     0.072 A 
HETATM   12  C   UNK N   1      34.964  40.276  50.195  0.00  0.00     0.024 A 
HETATM   13  C   UNK N   1      35.368  40.567  48.893  0.00  0.00     0.002 A 
HETATM   14  C   UNK N   1      36.436  39.876  48.328  0.00  0.00     0.001 A 
HETATM   15  C   UNK N   1      37.119  38.906  49.067  0.00  0.00     0.015 A 
HETATM   16  C   UNK N   1      36.754  38.610  50.392  0.00  0.00     0.014 A 
ENDROOT
BRANCH   4  17
HETATM   17  C   UNK N   1      39.960  37.590  50.467  0.00  0.00     0.137 C 
HETATM   18  C   UNK N   1      40.842  38.579  51.245  0.00  0.00     0.031 C 
HETATM   19  C   UNK N   1      41.957  39.072  50.314  0.00  0.00     0.032 C 
HETATM   20  C   UNK N   1      42.724  37.879  49.723  0.00  0.00     0.272 C 
HETATM   21  N   UNK N   1      41.812  37.022  48.925  0.00  0.00     0.092 N 
HETATM   22  C   UNK N   1      40.745  36.461  49.773  0.00  0.00     0.299 C 
BRANCH  21  23
HETATM   23  C   UNK N   1      42.543  35.936  48.231  0.00  0.00     0.302 C 
BRANCH  23  24
HETATM   24  C   UNK N   1      42.891  34.811  49.210  0.00  0.00     0.302 C 
BRANCH  24  25
HETATM   25  N   UNK N   1      42.422  33.496  48.722  0.00  0.00     0.090 N 
HETATM   26  C   UNK N   1      43.457  32.457  48.822  0.00  0.00     0.272 C 
HETATM   27  C   UNK N   1      44.394  32.724  47.663  0.00  0.00     0.032 C 
HETATM   28  C   UNK N   1      43.441  33.122  46.545  0.00  0.00     0.032 C 
HETATM   29  C   UNK N   1      42.146  33.521  47.275  0.00  0.00     0.272 C 
ENDBRANCH  24  25
ENDBRANCH  23  24
ENDBRANCH  21  23
ENDBRANCH   4  17
BRANCH   1  30
HETATM   30  C   UNK N   1      37.600  34.967  53.854  0.00  0.00     0.272 C 
HETATM   31  O   UNK N   1      37.153  33.894  53.475  0.00  0.00    -0.266 OA
HETATM   32  N   UNK N   1      38.026  35.096  55.163  0.00  0.00    -0.343 N 
HETATM   33  C   UNK N   1      38.360  36.372  55.788  0.00  0.00     0.152 C 
HETATM   34  C   UNK N   1      38.150  33.928  56.028  0.00  0.00     0.152 C 
HETATM   35  C   UNK N   1      37.551  36.479  57.091  0.00  0.00     0.187 C 
HETATM   36  O   UNK N   1      37.823  35.376  57.941  0.00  0.00    -0.388 OA
HETATM   37  C   UNK N   1      37.378  34.179  57.326  0.00  0.00     0.187 C 
ENDBRANCH   1  30
TORSDOF 5
ENDMDL
MODEL 6
REMARK VINA RESULT:      -8.0      5.867      9.805
REMARK  5 active torsions:
REMARK  status: ('A' for Active; 'I' for Inactive)
REMARK    1  A    between atoms: C_2  and  C_3 
REMARK       I    between atoms: C_2  and  N_32 
REMARK    2  A    between atoms: N_6  and  C_7 
REMARK    3  A    between atoms: N_11  and  C_12 
REMARK    4  A    between atoms: C_12  and  C_13 
REMARK    5  A    between atoms: C_13  and  N_14 
ROOT
HETATM    1  C   UNK N   1      40.974  33.827  45.503  0.00  0.00     0.126 A 
HETATM    2  N   UNK N   1      39.828  33.366  46.026  0.00  0.00    -0.292 N 
ATOM      3  HN  UNK N   1      39.690  33.116  47.005  1.00  0.00     0.187 HD
HETATM    4  N   UNK N   1      38.899  33.284  45.084  0.00  0.00    -0.284 N 
HETATM    5  C   UNK N   1      39.440  33.718  43.897  0.00  0.00     0.072 A 
HETATM    6  C   UNK N   1      40.784  34.041  44.149  0.00  0.00     0.019 A 
HETATM    7  C   UNK N   1      41.802  34.492  43.135  0.00  0.00     0.189 C 
HETATM    8  S   UNK N   1      41.403  33.581  41.635  0.00  0.00     0.180 S 
HETATM    9  O   UNK N   1      41.809  32.103  41.749  0.00  0.00    -0.222 OA
HETATM   10  O   UNK N   1      42.201  34.083  40.423  0.00  0.00    -0.222 OA
HETATM   11  C   UNK N   1      39.654  33.715  41.372  0.00  0.00     0.072 A 
HETATM   12  C   UNK N   1      39.124  33.782  40.078  0.00  0.00     0.024 A 
HETATM   13  C   UNK N   1      37.753  33.955  39.896  0.00  0.00     0.002 A 
HETATM   14  C   UNK N   1      36.916  34.074  41.003  0.00  0.00     0.001 A 
HETATM   15  C   UNK N   1      37.442  34.000  42.295  0.00  0.00     0.015 A 
HETATM   16  C   UNK N   1      38.817  33.797  42.511  0.00  0.00     0.014 A 
ENDROOT
BRANCH   4  17
HETATM   17  C   UNK N   1      37.626  32.621  45.431  0.00  0.00     0.137 C 
HETATM   18  C   UNK N   1      36.426  33.571  45.573  0.00  0.00     0.031 C 
HETATM   19  C   UNK N   1      35.221  32.762  46.068  0.00  0.00     0.032 C 
HETATM   20  C   UNK N   1      34.965  31.564  45.141  0.00  0.00     0.272 C 
HETATM   21  N   UNK N   1      36.143  30.662  45.126  0.00  0.00     0.092 N 
HETATM   22  C   UNK N   1      37.332  31.359  44.601  0.00  0.00     0.299 C 
BRANCH  21  23
HETATM   23  C   UNK N   1      35.884  29.428  44.348  0.00  0.00     0.302 C 
BRANCH  23  24
HETATM   24  C   UNK N   1      34.793  29.672  43.301  0.00  0.00     0.302 C 
BRANCH  24  25
HETATM   25  N   UNK N   1      33.840  28.544  43.231  0.00  0.00     0.090 N 
HETATM   26  C   UNK N   1      34.463  27.312  42.725  0.00  0.00     0.272 C 
HETATM   27  C   UNK N   1      34.570  27.513  41.228  0.00  0.00     0.032 C 
HETATM   28  C   UNK N   1      33.266  28.221  40.890  0.00  0.00     0.032 C 
HETATM   29  C   UNK N   1      32.782  28.788  42.236  0.00  0.00     0.272 C 
ENDBRANCH  24  25
ENDBRANCH  23  24
ENDBRANCH  21  23
ENDBRANCH   4  17
BRANCH   1  30
HETATM   30  C   UNK N   1      42.172  34.185  46.328  0.00  0.00     0.272 C 
HETATM   31  O   UNK N   1      42.127  35.230  46.961  0.00  0.00    -0.266 OA
HETATM   32  N   UNK N   1      43.248  33.334  46.505  0.00  0.00    -0.343 N 
HETATM   33  C   UNK N   1      43.526  32.185  45.649  0.00  0.00     0.152 C 
HETATM   34  C   UNK N   1      44.211  33.558  47.578  0.00  0.00     0.152 C 
HETATM   35  C   UNK N   1      44.979  32.306  45.162  0.00  0.00     0.187 C 
HETATM   36  O   UNK N   1      45.871  32.386  46.262  0.00  0.00    -0.388 OA
HETATM   37  C   UNK N   1      45.624  33.576  46.992  0.00  0.00     0.187 C 
ENDBRANCH   1  30
TORSDOF 5
ENDMDL
MODEL 7
REMARK VINA RESULT:      -8.0      5.006      7.791
REMARK  5 active torsions:
REMARK  status: ('A' for Active; 'I' for Inactive)
REMARK    1  A    between atoms: C_2  and  C_3 
REMARK       I    between atoms: C_2  and  N_32 
REMARK    2  A    between atoms: N_6  and  C_7 
REMARK    3  A    between atoms: N_11  and  C_12 
REMARK    4  A    between atoms: C_12  and  C_13 
REMARK    5  A    between atoms: C_13  and  N_14 
ROOT
HETATM    1  C   UNK N   1      38.342  40.759  56.162  0.00  0.00     0.126 A 
HETATM    2  N   UNK N   1      38.263  40.093  55.001  0.00  0.00    -0.292 N 
ATOM      3  HN  UNK N   1      37.395  39.857  54.520  1.00  0.00     0.187 HD
HETATM    4  N   UNK N   1      39.478  39.784  54.570  0.00  0.00    -0.284 N 
HETATM    5  C   UNK N   1      40.397  40.275  55.465  0.00  0.00     0.072 A 
HETATM    6  C   UNK N   1      39.677  40.878  56.510  0.00  0.00     0.019 A 
HETATM    7  C   UNK N   1      40.254  41.489  57.759  0.00  0.00     0.189 C 
HETATM    8  S   UNK N   1      41.669  40.459  58.174  0.00  0.00     0.180 S 
HETATM    9  O   UNK N   1      41.230  39.102  58.747  0.00  0.00    -0.222 OA
HETATM   10  O   UNK N   1      42.520  41.068  59.299  0.00  0.00    -0.222 OA
HETATM   11  C   UNK N   1      42.614  40.219  56.693  0.00  0.00     0.072 A 
HETATM   12  C   UNK N   1      44.010  40.125  56.736  0.00  0.00     0.024 A 
HETATM   13  C   UNK N   1      44.737  40.005  55.553  0.00  0.00     0.002 A 
HETATM   14  C   UNK N   1      44.072  39.990  54.330  0.00  0.00     0.001 A 
HETATM   15  C   UNK N   1      42.678  40.076  54.284  0.00  0.00     0.015 A 
HETATM   16  C   UNK N   1      41.915  40.170  55.462  0.00  0.00     0.014 A 
ENDROOT
BRANCH   4  17
HETATM   17  C   UNK N   1      39.584  38.887  53.401  0.00  0.00     0.137 C 
HETATM   18  C   UNK N   1      38.296  38.121  53.061  0.00  0.00     0.031 C 
HETATM   19  C   UNK N   1      38.601  37.138  51.924  0.00  0.00     0.032 C 
HETATM   20  C   UNK N   1      39.225  37.877  50.731  0.00  0.00     0.272 C 
HETATM   21  N   UNK N   1      40.501  38.519  51.131  0.00  0.00     0.092 N 
HETATM   22  C   UNK N   1      40.274  39.527  52.183  0.00  0.00     0.299 C 
BRANCH  21  23
HETATM   23  C   UNK N   1      41.198  39.131  49.975  0.00  0.00     0.302 C 
BRANCH  23  24
HETATM   24  C   UNK N   1      42.716  39.063  50.164  0.00  0.00     0.302 C 
BRANCH  24  25
HETATM   25  N   UNK N   1      43.192  37.667  50.265  0.00  0.00     0.090 N 
HETATM   26  C   UNK N   1      43.839  37.385  51.555  0.00  0.00     0.272 C 
HETATM   27  C   UNK N   1      45.215  38.007  51.449  0.00  0.00     0.032 C 
HETATM   28  C   UNK N   1      45.611  37.702  50.011  0.00  0.00     0.032 C 
HETATM   29  C   UNK N   1      44.278  37.393  49.308  0.00  0.00     0.272 C 
ENDBRANCH  24  25
ENDBRANCH  23  24
ENDBRANCH  21  23
ENDBRANCH   4  17
BRANCH   1  30
HETATM   30  C   UNK N   1      37.161  41.388  56.835  0.00  0.00     0.272 C 
HETATM   31  O   UNK N   1      36.321  40.639  57.313  0.00  0.00    -0.266 OA
HETATM   32  N   UNK N   1      37.053  42.750  57.053  0.00  0.00    -0.343 N 
HETATM   33  C   UNK N   1      37.852  43.751  56.353  0.00  0.00     0.152 C 
HETATM   34  C   UNK N   1      36.087  43.281  58.008  0.00  0.00     0.152 C 
HETATM   35  C   UNK N   1      36.884  44.781  55.747  0.00  0.00     0.187 C 
HETATM   36  O   UNK N   1      36.066  45.352  56.755  0.00  0.00    -0.388 OA
HETATM   37  C   UNK N   1      35.236  44.352  57.321  0.00  0.00     0.187 C 
ENDBRANCH   1  30
TORSDOF 5
ENDMDL
MODEL 8
REMARK VINA RESULT:      -7.8      3.356      6.747
REMARK  5 active torsions:
REMARK  status: ('A' for Active; 'I' for Inactive)
REMARK    1  A    between atoms: C_2  and  C_3 
REMARK       I    between atoms: C_2  and  N_32 
REMARK    2  A    between atoms: N_6  and  C_7 
REMARK    3  A    between atoms: N_11  and  C_12 
REMARK    4  A    between atoms: C_12  and  C_13 
REMARK    5  A    between atoms: C_13  and  N_14 
ROOT
HETATM    1  C   UNK N   1      37.866  36.317  52.815  0.00  0.00     0.126 A 
HETATM    2  N   UNK N   1      38.912  36.287  51.975  0.00  0.00    -0.292 N 
ATOM      3  HN  UNK N   1      39.763  35.744  52.120  1.00  0.00     0.187 HD
HETATM    4  N   UNK N   1      38.678  37.066  50.929  0.00  0.00    -0.284 N 
HETATM    5  C   UNK N   1      37.429  37.622  51.068  0.00  0.00     0.072 A 
HETATM    6  C   UNK N   1      36.909  37.171  52.293  0.00  0.00     0.019 A 
HETATM    7  C   UNK N   1      35.597  37.573  52.911  0.00  0.00     0.189 C 
HETATM    8  S   UNK N   1      35.383  39.304  52.472  0.00  0.00     0.180 S 
HETATM    9  O   UNK N   1      36.323  40.211  53.284  0.00  0.00    -0.222 OA
HETATM   10  O   UNK N   1      33.983  39.825  52.829  0.00  0.00    -0.222 OA
HETATM   11  C   UNK N   1      35.724  39.468  50.740  0.00  0.00     0.072 A 
HETATM   12  C   UNK N   1      35.023  40.389  49.952  0.00  0.00     0.024 A 
HETATM   13  C   UNK N   1      35.259  40.453  48.580  0.00  0.00     0.002 A 
HETATM   14  C   UNK N   1      36.183  39.590  47.995  0.00  0.00     0.001 A 
HETATM   15  C   UNK N   1      36.888  38.675  48.780  0.00  0.00     0.015 A 
HETATM   16  C   UNK N   1      36.693  38.606  50.171  0.00  0.00     0.014 A 
ENDROOT
BRANCH   4  17
HETATM   17  C   UNK N   1      39.792  37.306  49.989  0.00  0.00     0.137 C 
HETATM   18  C   UNK N   1      40.489  38.666  50.153  0.00  0.00     0.031 C 
HETATM   19  C   UNK N   1      41.519  38.823  49.028  0.00  0.00     0.032 C 
HETATM   20  C   UNK N   1      42.480  37.624  49.012  0.00  0.00     0.272 C 
HETATM   21  N   UNK N   1      41.731  36.366  48.770  0.00  0.00     0.092 N 
HETATM   22  C   UNK N   1      40.760  36.117  49.852  0.00  0.00     0.299 C 
BRANCH  21  23
HETATM   23  C   UNK N   1      42.639  35.204  48.617  0.00  0.00     0.302 C 
BRANCH  23  24
HETATM   24  C   UNK N   1      42.592  34.671  47.183  0.00  0.00     0.302 C 
BRANCH  24  25
HETATM   25  N   UNK N   1      42.864  33.219  47.130  0.00  0.00     0.090 N 
HETATM   26  C   UNK N   1      44.171  32.870  47.708  0.00  0.00     0.272 C 
HETATM   27  C   UNK N   1      45.183  33.252  46.649  0.00  0.00     0.032 C 
HETATM   28  C   UNK N   1      44.488  32.846  45.357  0.00  0.00     0.032 C 
HETATM   29  C   UNK N   1      43.002  32.742  45.743  0.00  0.00     0.272 C 
ENDBRANCH  24  25
ENDBRANCH  23  24
ENDBRANCH  21  23
ENDBRANCH   4  17
BRANCH   1  30
HETATM   30  C   UNK N   1      37.744  35.428  54.013  0.00  0.00     0.272 C 
HETATM   31  O   UNK N   1      38.166  35.857  55.078  0.00  0.00    -0.266 OA
HETATM   32  N   UNK N   1      37.066  34.222  53.993  0.00  0.00    -0.343 N 
HETATM   33  C   UNK N   1      36.721  33.504  52.770  0.00  0.00     0.152 C 
HETATM   34  C   UNK N   1      36.664  33.568  55.233  0.00  0.00     0.152 C 
HETATM   35  C   UNK N   1      37.245  32.066  52.909  0.00  0.00     0.187 C 
HETATM   36  O   UNK N   1      36.708  31.447  54.067  0.00  0.00    -0.388 OA
HETATM   37  C   UNK N   1      37.167  32.122  55.226  0.00  0.00     0.187 C 
ENDBRANCH   1  30
TORSDOF 5
ENDMDL
MODEL 9
REMARK VINA RESULT:      -7.7      4.743     10.320
REMARK  5 active torsions:
REMARK  status: ('A' for Active; 'I' for Inactive)
REMARK    1  A    between atoms: C_2  and  C_3 
REMARK       I    between atoms: C_2  and  N_32 
REMARK    2  A    between atoms: N_6  and  C_7 
REMARK    3  A    between atoms: N_11  and  C_12 
REMARK    4  A    between atoms: C_12  and  C_13 
REMARK    5  A    between atoms: C_13  and  N_14 
ROOT
HETATM    1  C   UNK N   1      42.307  38.850  51.796  0.00  0.00     0.126 A 
HETATM    2  N   UNK N   1      40.980  38.946  51.965  0.00  0.00    -0.292 N 
ATOM      3  HN  UNK N   1      40.286  38.818  51.228  1.00  0.00     0.187 HD
HETATM    4  N   UNK N   1      40.700  39.232  53.228  0.00  0.00    -0.284 N 
HETATM    5  C   UNK N   1      41.880  39.313  53.929  0.00  0.00     0.072 A 
HETATM    6  C   UNK N   1      42.922  39.099  53.011  0.00  0.00     0.019 A 
HETATM    7  C   UNK N   1      44.398  39.168  53.300  0.00  0.00     0.189 C 
HETATM    8  S   UNK N   1      44.577  40.485  54.512  0.00  0.00     0.180 S 
HETATM    9  O   UNK N   1      44.390  41.869  53.871  0.00  0.00    -0.222 OA
HETATM   10  O   UNK N   1      45.996  40.547  55.096  0.00  0.00    -0.222 OA
HETATM   11  C   UNK N   1      43.358  40.227  55.774  0.00  0.00     0.072 A 
HETATM   12  C   UNK N   1      43.626  40.548  57.110  0.00  0.00     0.024 A 
HETATM   13  C   UNK N   1      42.678  40.273  58.095  0.00  0.00     0.002 A 
HETATM   14  C   UNK N   1      41.473  39.668  57.747  0.00  0.00     0.001 A 
HETATM   15  C   UNK N   1      41.201  39.353  56.414  0.00  0.00     0.015 A 
HETATM   16  C   UNK N   1      42.125  39.643  55.394  0.00  0.00     0.014 A 
ENDROOT
BRANCH   4  17
HETATM   17  C   UNK N   1      39.300  39.560  53.565  0.00  0.00     0.137 C 
HETATM   18  C   UNK N   1      38.505  38.406  54.195  0.00  0.00     0.031 C 
HETATM   19  C   UNK N   1      37.047  38.852  54.357  0.00  0.00     0.032 C 
HETATM   20  C   UNK N   1      36.976  40.167  55.148  0.00  0.00     0.272 C 
HETATM   21  N   UNK N   1      37.703  41.243  54.429  0.00  0.00     0.092 N 
HETATM   22  C   UNK N   1      39.132  40.907  54.291  0.00  0.00     0.299 C 
BRANCH  21  23
HETATM   23  C   UNK N   1      37.545  42.556  55.096  0.00  0.00     0.302 C 
BRANCH  23  24
HETATM   24  C   UNK N   1      36.204  42.628  55.832  0.00  0.00     0.302 C 
BRANCH  24  25
HETATM   25  N   UNK N   1      36.334  43.305  57.140  0.00  0.00     0.090 N 
HETATM   26  C   UNK N   1      35.050  43.828  57.632  0.00  0.00     0.272 C 
HETATM   27  C   UNK N   1      34.808  45.090  56.832  0.00  0.00     0.032 C 
HETATM   28  C   UNK N   1      36.199  45.700  56.738  0.00  0.00     0.032 C 
HETATM   29  C   UNK N   1      37.149  44.528  57.041  0.00  0.00     0.272 C 
ENDBRANCH  24  25
ENDBRANCH  23  24
ENDBRANCH  21  23
ENDBRANCH   4  17
BRANCH   1  30
HETATM   30  C   UNK N   1      42.946  38.385  50.524  0.00  0.00     0.272 C 
HETATM   31  O   UNK N   1      43.311  39.241  49.732  0.00  0.00    -0.266 OA
HETATM   32  N   UNK N   1      43.255  37.059  50.275  0.00  0.00    -0.343 N 
HETATM   33  C   UNK N   1      42.684  35.938  51.016  0.00  0.00     0.152 C 
HETATM   34  C   UNK N   1      44.182  36.695  49.210  0.00  0.00     0.152 C 
HETATM   35  C   UNK N   1      42.095  34.955  49.992  0.00  0.00     0.187 C 
HETATM   36  O   UNK N   1      43.086  34.541  49.066  0.00  0.00    -0.388 OA
HETATM   37  C   UNK N   1      43.522  35.652  48.303  0.00  0.00     0.187 C 
ENDBRANCH   1  30
TORSDOF 5
ENDMDL
