MODEL 1
REMARK VINA RESULT:      -9.3      0.000      0.000
REMARK  3 active torsions:
REMARK  status: ('A' for Active; 'I' for Inactive)
REMARK    1  A    between atoms: C_2  and  C_3 
REMARK       I    between atoms: C_2  and  N_32 
REMARK    2  A    between atoms: N_6  and  C_7 
REMARK    3  A    between atoms: N_11  and  C_12 
ROOT
HETATM    1  C   UNK N   1      40.651  38.117  49.718  0.00  0.00     0.126 A 
HETATM    2  N   UNK N   1      41.061  37.069  48.986  0.00  0.00    -0.292 N 
ATOM      3  HN  UNK N   1      40.487  36.564  48.311  1.00  0.00     0.187 HD
HETATM    4  N   UNK N   1      42.322  36.790  49.272  0.00  0.00    -0.284 N 
HETATM    5  C   UNK N   1      42.788  37.701  50.175  0.00  0.00     0.074 A 
HETATM    6  C   UNK N   1      41.709  38.536  50.517  0.00  0.00     0.019 A 
HETATM    7  C   UNK N   1      41.690  39.652  51.531  0.00  0.00     0.191 C 
HETATM    8  S   UNK N   1      43.035  39.334  52.688  0.00  0.00     0.196 S 
HETATM    9  O   UNK N   1      43.455  40.604  53.442  0.00  0.00    -0.221 OA
HETATM   10  O   UNK N   1      42.543  38.423  53.825  0.00  0.00    -0.221 OA
HETATM   11  C   UNK N   1      44.419  38.572  51.902  0.00  0.00     0.141 A 
HETATM   12  N   UNK N   1      45.671  38.742  52.406  0.00  0.00    -0.356 N 
ATOM     13  HN  UNK N   1      45.792  39.259  53.277  1.00  0.00     0.166 HD
HETATM   14  C   UNK N   1      46.762  38.239  51.775  0.00  0.00     0.089 A 
HETATM   15  C   UNK N   1      46.616  37.564  50.567  0.00  0.00     0.018 A 
HETATM   16  C   UNK N   1      45.342  37.374  50.032  0.00  0.00     0.018 A 
HETATM   17  C   UNK N   1      44.200  37.849  50.714  0.00  0.00     0.031 A 
ENDROOT
BRANCH   4  18
HETATM   18  C   UNK N   1      42.962  35.598  48.695  0.00  0.00     0.126 C 
HETATM   19  C   UNK N   1      42.874  34.410  49.684  0.00  0.00     0.030 C 
HETATM   20  C   UNK N   1      42.971  33.049  48.970  0.00  0.00     0.022 C 
HETATM   21  C   UNK N   1      43.776  33.160  47.673  0.00  0.00     0.117 C 
HETATM   22  N   UNK N   1      43.127  34.113  46.721  0.00  0.00    -0.404 N 
HETATM   23  C   UNK N   1      42.346  35.215  47.346  0.00  0.00     0.144 C 
BRANCH  22  24
HETATM   24  C   UNK N   1      42.436  33.521  45.546  0.00  0.00     0.103 C 
HETATM   25  C   UNK N   1      43.189  32.326  44.923  0.00  0.00     0.029 C 
HETATM   26  C   UNK N   1      42.414  31.833  43.702  0.00  0.00     0.028 C 
HETATM   27  C   UNK N   1      42.188  33.010  42.744  0.00  0.00     0.167 C 
HETATM   28  O   UNK N   1      41.440  34.033  43.379  0.00  0.00    -0.389 OA
HETATM   29  C   UNK N   1      42.181  34.584  44.455  0.00  0.00     0.192 C 
ENDBRANCH  22  24
ENDBRANCH   4  18
BRANCH   1  30
HETATM   30  C   UNK N   1      39.305  38.756  49.570  0.00  0.00     0.272 C 
HETATM   31  O   UNK N   1      39.217  39.720  48.822  0.00  0.00    -0.266 OA
HETATM   32  N   UNK N   1      38.156  38.229  50.135  0.00  0.00    -0.343 N 
HETATM   33  C   UNK N   1      36.835  38.651  49.679  0.00  0.00     0.152 C 
HETATM   34  C   UNK N   1      38.162  37.227  51.199  0.00  0.00     0.152 C 
HETATM   35  C   UNK N   1      35.963  39.015  50.885  0.00  0.00     0.187 C 
HETATM   36  O   UNK N   1      35.921  37.938  51.805  0.00  0.00    -0.388 OA
HETATM   37  C   UNK N   1      37.221  37.704  52.315  0.00  0.00     0.187 C 
ENDBRANCH   1  30
TORSDOF 3
ENDMDL
MODEL 2
REMARK VINA RESULT:      -8.9      3.985      7.115
REMARK  3 active torsions:
REMARK  status: ('A' for Active; 'I' for Inactive)
REMARK    1  A    between atoms: C_2  and  C_3 
REMARK       I    between atoms: C_2  and  N_32 
REMARK    2  A    between atoms: N_6  and  C_7 
REMARK    3  A    between atoms: N_11  and  C_12 
ROOT
HETATM    1  C   UNK N   1      40.127  39.538  53.004  0.00  0.00     0.126 A 
HETATM    2  N   UNK N   1      41.274  39.324  52.341  0.00  0.00    -0.292 N 
ATOM      3  HN  UNK N   1      42.163  39.781  52.543  1.00  0.00     0.187 HD
HETATM    4  N   UNK N   1      41.079  38.429  51.386  0.00  0.00    -0.284 N 
HETATM    5  C   UNK N   1      39.787  37.992  51.441  0.00  0.00     0.074 A 
HETATM    6  C   UNK N   1      39.139  38.735  52.445  0.00  0.00     0.019 A 
HETATM    7  C   UNK N   1      37.686  38.681  52.843  0.00  0.00     0.191 C 
HETATM    8  S   UNK N   1      36.780  38.019  51.431  0.00  0.00     0.196 S 
HETATM    9  O   UNK N   1      35.418  37.441  51.844  0.00  0.00    -0.221 OA
HETATM   10  O   UNK N   1      36.378  39.163  50.485  0.00  0.00    -0.221 OA
HETATM   11  C   UNK N   1      37.729  36.836  50.529  0.00  0.00     0.141 A 
HETATM   12  N   UNK N   1      37.106  35.858  49.820  0.00  0.00    -0.356 N 
ATOM     13  HN  UNK N   1      36.088  35.854  49.762  1.00  0.00     0.166 HD
HETATM   14  C   UNK N   1      37.810  34.885  49.187  0.00  0.00     0.089 A 
HETATM   15  C   UNK N   1      39.197  34.855  49.287  0.00  0.00     0.018 A 
HETATM   16  C   UNK N   1      39.860  35.850  50.007  0.00  0.00     0.018 A 
HETATM   17  C   UNK N   1      39.133  36.895  50.621  0.00  0.00     0.031 A 
ENDROOT
BRANCH   4  18
HETATM   18  C   UNK N   1      42.155  38.120  50.434  0.00  0.00     0.126 C 
HETATM   19  C   UNK N   1      42.237  39.215  49.342  0.00  0.00     0.030 C 
HETATM   20  C   UNK N   1      43.633  39.290  48.695  0.00  0.00     0.022 C 
HETATM   21  C   UNK N   1      44.342  37.935  48.750  0.00  0.00     0.117 C 
HETATM   22  N   UNK N   1      44.535  37.489  50.164  0.00  0.00    -0.404 N 
HETATM   23  C   UNK N   1      43.509  37.964  51.133  0.00  0.00     0.144 C 
BRANCH  22  24
HETATM   24  C   UNK N   1      45.914  37.569  50.711  0.00  0.00     0.103 C 
HETATM   25  C   UNK N   1      46.022  38.421  51.994  0.00  0.00     0.029 C 
HETATM   26  C   UNK N   1      47.484  38.470  52.436  0.00  0.00     0.028 C 
HETATM   27  C   UNK N   1      48.343  38.970  51.268  0.00  0.00     0.167 C 
HETATM   28  O   UNK N   1      48.229  38.098  50.156  0.00  0.00    -0.389 OA
HETATM   29  C   UNK N   1      46.903  38.112  49.656  0.00  0.00     0.192 C 
ENDBRANCH  22  24
ENDBRANCH   4  18
BRANCH   1  30
HETATM   30  C   UNK N   1      40.018  40.421  54.209  0.00  0.00     0.272 C 
HETATM   31  O   UNK N   1      39.232  41.356  54.155  0.00  0.00    -0.266 OA
HETATM   32  N   UNK N   1      40.665  40.147  55.402  0.00  0.00    -0.343 N 
HETATM   33  C   UNK N   1      40.259  40.800  56.643  0.00  0.00     0.152 C 
HETATM   34  C   UNK N   1      41.773  39.201  55.525  0.00  0.00     0.152 C 
HETATM   35  C   UNK N   1      41.489  41.370  57.355  0.00  0.00     0.187 C 
HETATM   36  O   UNK N   1      42.459  40.355  57.548  0.00  0.00    -0.388 OA
HETATM   37  C   UNK N   1      42.913  39.891  56.290  0.00  0.00     0.187 C 
ENDBRANCH   1  30
TORSDOF 3
ENDMDL
MODEL 3
REMARK VINA RESULT:      -8.6      2.472      7.140
REMARK  3 active torsions:
REMARK  status: ('A' for Active; 'I' for Inactive)
REMARK    1  A    between atoms: C_2  and  C_3 
REMARK       I    between atoms: C_2  and  N_32 
REMARK    2  A    between atoms: N_6  and  C_7 
REMARK    3  A    between atoms: N_11  and  C_12 
ROOT
HETATM    1  C   UNK N   1      40.484  35.682  49.297  0.00  0.00     0.126 A 
HETATM    2  N   UNK N   1      41.543  36.257  49.889  0.00  0.00    -0.292 N 
ATOM      3  HN  UNK N   1      41.499  36.880  50.695  1.00  0.00     0.187 HD
HETATM    4  N   UNK N   1      42.654  35.893  49.270  0.00  0.00    -0.284 N 
HETATM    5  C   UNK N   1      42.342  35.012  48.274  0.00  0.00     0.074 A 
HETATM    6  C   UNK N   1      40.940  34.903  48.240  0.00  0.00     0.019 A 
HETATM    7  C   UNK N   1      40.098  34.112  47.271  0.00  0.00     0.191 C 
HETATM    8  S   UNK N   1      41.096  33.863  45.790  0.00  0.00     0.196 S 
HETATM    9  O   UNK N   1      40.591  32.681  44.951  0.00  0.00    -0.221 OA
HETATM   10  O   UNK N   1      40.912  35.050  44.831  0.00  0.00    -0.221 OA
HETATM   11  C   UNK N   1      42.811  33.691  46.167  0.00  0.00     0.141 A 
HETATM   12  N   UNK N   1      43.626  32.982  45.341  0.00  0.00    -0.356 N 
ATOM     13  HN  UNK N   1      43.249  32.608  44.470  1.00  0.00     0.166 HD
HETATM   14  C   UNK N   1      44.929  32.762  45.650  0.00  0.00     0.089 A 
HETATM   15  C   UNK N   1      45.447  33.235  46.850  0.00  0.00     0.018 A 
HETATM   16  C   UNK N   1      44.633  33.968  47.714  0.00  0.00     0.018 A 
HETATM   17  C   UNK N   1      43.291  34.246  47.370  0.00  0.00     0.031 A 
ENDROOT
BRANCH   4  18
HETATM   18  C   UNK N   1      43.940  36.494  49.648  0.00  0.00     0.126 C 
HETATM   19  C   UNK N   1      44.278  37.678  48.707  0.00  0.00     0.030 C 
HETATM   20  C   UNK N   1      45.243  38.685  49.361  0.00  0.00     0.022 C 
HETATM   21  C   UNK N   1      46.133  38.003  50.402  0.00  0.00     0.117 C 
HETATM   22  N   UNK N   1      45.312  37.405  51.498  0.00  0.00    -0.404 N 
HETATM   23  C   UNK N   1      43.947  36.957  51.109  0.00  0.00     0.144 C 
BRANCH  22  24
HETATM   24  C   UNK N   1      45.329  38.105  52.809  0.00  0.00     0.103 C 
HETATM   25  C   UNK N   1      44.198  39.146  52.967  0.00  0.00     0.029 C 
HETATM   26  C   UNK N   1      44.343  39.832  54.325  0.00  0.00     0.028 C 
HETATM   27  C   UNK N   1      45.759  40.410  54.445  0.00  0.00     0.167 C 
HETATM   28  O   UNK N   1      46.728  39.380  54.347  0.00  0.00    -0.389 OA
HETATM   29  C   UNK N   1      46.689  38.793  53.057  0.00  0.00     0.192 C 
ENDBRANCH  22  24
ENDBRANCH   4  18
BRANCH   1  30
HETATM   30  C   UNK N   1      39.081  35.804  49.808  0.00  0.00     0.272 C 
HETATM   31  O   UNK N   1      38.469  34.769  50.029  0.00  0.00    -0.266 OA
HETATM   32  N   UNK N   1      38.510  37.017  50.155  0.00  0.00    -0.343 N 
HETATM   33  C   UNK N   1      37.306  37.071  50.979  0.00  0.00     0.152 C 
HETATM   34  C   UNK N   1      39.049  38.312  49.746  0.00  0.00     0.152 C 
HETATM   35  C   UNK N   1      36.276  37.999  50.330  0.00  0.00     0.187 C 
HETATM   36  O   UNK N   1      36.846  39.274  50.086  0.00  0.00    -0.388 OA
HETATM   37  C   UNK N   1      37.903  39.146  49.154  0.00  0.00     0.187 C 
ENDBRANCH   1  30
TORSDOF 3
ENDMDL
MODEL 4
REMARK VINA RESULT:      -8.3      5.886     10.637
REMARK  3 active torsions:
REMARK  status: ('A' for Active; 'I' for Inactive)
REMARK    1  A    between atoms: C_2  and  C_3 
REMARK       I    between atoms: C_2  and  N_32 
REMARK    2  A    between atoms: N_6  and  C_7 
REMARK    3  A    between atoms: N_11  and  C_12 
ROOT
HETATM    1  C   UNK N   1      41.509  32.265  43.576  0.00  0.00     0.126 A 
HETATM    2  N   UNK N   1      40.280  32.239  44.114  0.00  0.00    -0.292 N 
ATOM      3  HN  UNK N   1      40.053  31.888  45.044  1.00  0.00     0.187 HD
HETATM    4  N   UNK N   1      39.406  32.739  43.256  0.00  0.00    -0.284 N 
HETATM    5  C   UNK N   1      40.067  33.160  42.139  0.00  0.00     0.074 A 
HETATM    6  C   UNK N   1      41.421  32.814  42.302  0.00  0.00     0.019 A 
HETATM    7  C   UNK N   1      42.546  32.996  41.316  0.00  0.00     0.191 C 
HETATM    8  S   UNK N   1      41.798  33.113  39.680  0.00  0.00     0.196 S 
HETATM    9  O   UNK N   1      42.733  33.791  38.668  0.00  0.00    -0.221 OA
HETATM   10  O   UNK N   1      41.629  31.707  39.080  0.00  0.00    -0.221 OA
HETATM   11  C   UNK N   1      40.223  33.908  39.726  0.00  0.00     0.141 A 
HETATM   12  N   UNK N   1      39.758  34.570  38.633  0.00  0.00    -0.356 N 
ATOM     13  HN  UNK N   1      40.300  34.547  37.769  1.00  0.00     0.166 HD
HETATM   14  C   UNK N   1      38.592  35.263  38.668  0.00  0.00     0.089 A 
HETATM   15  C   UNK N   1      37.862  35.334  39.850  0.00  0.00     0.018 A 
HETATM   16  C   UNK N   1      38.315  34.660  40.984  0.00  0.00     0.018 A 
HETATM   17  C   UNK N   1      39.502  33.894  40.936  0.00  0.00     0.031 A 
ENDROOT
BRANCH   4  18
HETATM   18  C   UNK N   1      37.968  32.700  43.561  0.00  0.00     0.126 C 
HETATM   19  C   UNK N   1      37.355  31.360  43.085  0.00  0.00     0.030 C 
HETATM   20  C   UNK N   1      36.070  31.001  43.856  0.00  0.00     0.022 C 
HETATM   21  C   UNK N   1      35.357  32.258  44.360  0.00  0.00     0.117 C 
HETATM   22  N   UNK N   1      36.230  33.031  45.294  0.00  0.00    -0.404 N 
HETATM   23  C   UNK N   1      37.695  32.911  45.054  0.00  0.00     0.144 C 
BRANCH  22  24
HETATM   24  C   UNK N   1      35.885  32.973  46.739  0.00  0.00     0.103 C 
HETATM   25  C   UNK N   1      36.989  33.534  47.661  0.00  0.00     0.029 C 
HETATM   26  C   UNK N   1      36.546  33.381  49.115  0.00  0.00     0.028 C 
HETATM   27  C   UNK N   1      36.186  31.913  49.376  0.00  0.00     0.167 C 
HETATM   28  O   UNK N   1      35.127  31.501  48.529  0.00  0.00    -0.389 OA
HETATM   29  C   UNK N   1      35.544  31.531  47.174  0.00  0.00     0.192 C 
ENDBRANCH  22  24
ENDBRANCH   4  18
BRANCH   1  30
HETATM   30  C   UNK N   1      42.747  31.863  44.317  0.00  0.00     0.272 C 
HETATM   31  O   UNK N   1      43.205  30.752  44.091  0.00  0.00    -0.266 OA
HETATM   32  N   UNK N   1      43.450  32.732  45.135  0.00  0.00    -0.343 N 
HETATM   33  C   UNK N   1      44.821  32.437  45.540  0.00  0.00     0.152 C 
HETATM   34  C   UNK N   1      42.902  33.988  45.643  0.00  0.00     0.152 C 
HETATM   35  C   UNK N   1      44.962  32.612  47.055  0.00  0.00     0.187 C 
HETATM   36  O   UNK N   1      44.529  33.904  47.443  0.00  0.00    -0.388 OA
HETATM   37  C   UNK N   1      43.149  34.044  47.158  0.00  0.00     0.187 C 
ENDBRANCH   1  30
TORSDOF 3
ENDMDL
MODEL 5
REMARK VINA RESULT:      -8.1      2.842      7.250
REMARK  3 active torsions:
REMARK  status: ('A' for Active; 'I' for Inactive)
REMARK    1  A    between atoms: C_2  and  C_3 
REMARK       I    between atoms: C_2  and  N_32 
REMARK    2  A    between atoms: N_6  and  C_7 
REMARK    3  A    between atoms: N_11  and  C_12 
ROOT
HETATM    1  C   UNK N   1      39.634  35.634  49.209  0.00  0.00     0.126 A 
HETATM    2  N   UNK N   1      40.671  36.174  49.867  0.00  0.00    -0.292 N 
ATOM      3  HN  UNK N   1      40.596  36.842  50.634  1.00  0.00     0.187 HD
HETATM    4  N   UNK N   1      41.806  35.709  49.372  0.00  0.00    -0.284 N 
HETATM    5  C   UNK N   1      41.527  34.797  48.396  0.00  0.00     0.074 A 
HETATM    6  C   UNK N   1      40.130  34.772  48.237  0.00  0.00     0.019 A 
HETATM    7  C   UNK N   1      39.327  33.983  47.234  0.00  0.00     0.191 C 
HETATM    8  S   UNK N   1      40.435  33.593  45.866  0.00  0.00     0.196 S 
HETATM    9  O   UNK N   1      39.930  32.400  45.041  0.00  0.00    -0.221 OA
HETATM   10  O   UNK N   1      40.417  34.735  44.837  0.00  0.00    -0.221 OA
HETATM   11  C   UNK N   1      42.094  33.336  46.408  0.00  0.00     0.141 A 
HETATM   12  N   UNK N   1      42.931  32.535  45.696  0.00  0.00    -0.356 N 
ATOM     13  HN  UNK N   1      42.609  32.137  44.814  1.00  0.00     0.166 HD
HETATM   14  C   UNK N   1      44.183  32.252  46.135  0.00  0.00     0.089 A 
HETATM   15  C   UNK N   1      44.623  32.757  47.354  0.00  0.00     0.018 A 
HETATM   16  C   UNK N   1      43.784  33.584  48.102  0.00  0.00     0.018 A 
HETATM   17  C   UNK N   1      42.500  33.925  47.622  0.00  0.00     0.031 A 
ENDROOT
BRANCH   4  18
HETATM   18  C   UNK N   1      43.091  36.250  49.839  0.00  0.00     0.126 C 
HETATM   19  C   UNK N   1      43.661  37.250  48.803  0.00  0.00     0.030 C 
HETATM   20  C   UNK N   1      44.636  38.258  49.441  0.00  0.00     0.022 C 
HETATM   21  C   UNK N   1      45.317  37.664  50.676  0.00  0.00     0.117 C 
HETATM   22  N   UNK N   1      44.310  37.303  51.720  0.00  0.00    -0.404 N 
HETATM   23  C   UNK N   1      42.964  36.919  51.211  0.00  0.00     0.144 C 
BRANCH  22  24
HETATM   24  C   UNK N   1      44.236  38.184  52.914  0.00  0.00     0.103 C 
HETATM   25  C   UNK N   1      43.255  39.366  52.751  0.00  0.00     0.029 C 
HETATM   26  C   UNK N   1      43.297  40.225  54.014  0.00  0.00     0.028 C 
HETATM   27  C   UNK N   1      44.748  40.638  54.289  0.00  0.00     0.167 C 
HETATM   28  O   UNK N   1      45.564  39.495  54.485  0.00  0.00    -0.389 OA
HETATM   29  C   UNK N   1      45.630  38.731  53.292  0.00  0.00     0.192 C 
ENDBRANCH  22  24
ENDBRANCH   4  18
BRANCH   1  30
HETATM   30  C   UNK N   1      38.202  35.870  49.581  0.00  0.00     0.272 C 
HETATM   31  O   UNK N   1      37.720  36.960  49.307  0.00  0.00    -0.266 OA
HETATM   32  N   UNK N   1      37.385  34.877  50.095  0.00  0.00    -0.343 N 
HETATM   33  C   UNK N   1      35.933  35.029  50.100  0.00  0.00     0.152 C 
HETATM   34  C   UNK N   1      37.887  33.623  50.653  0.00  0.00     0.152 C 
HETATM   35  C   UNK N   1      35.383  34.701  51.491  0.00  0.00     0.187 C 
HETATM   36  O   UNK N   1      35.813  33.414  51.899  0.00  0.00    -0.388 OA
HETATM   37  C   UNK N   1      37.224  33.406  52.022  0.00  0.00     0.187 C 
ENDBRANCH   1  30
TORSDOF 3
ENDMDL
MODEL 6
REMARK VINA RESULT:      -7.9      4.255      7.246
REMARK  3 active torsions:
REMARK  status: ('A' for Active; 'I' for Inactive)
REMARK    1  A    between atoms: C_2  and  C_3 
REMARK       I    between atoms: C_2  and  N_32 
REMARK    2  A    between atoms: N_6  and  C_7 
REMARK    3  A    between atoms: N_11  and  C_12 
ROOT
HETATM    1  C   UNK N   1      39.156  38.538  53.756  0.00  0.00     0.126 A 
HETATM    2  N   UNK N   1      40.212  38.530  52.927  0.00  0.00    -0.292 N 
ATOM      3  HN  UNK N   1      41.109  38.978  53.114  1.00  0.00     0.187 HD
HETATM    4  N   UNK N   1      39.914  37.851  51.831  0.00  0.00    -0.284 N 
HETATM    5  C   UNK N   1      38.651  37.347  51.948  0.00  0.00     0.074 A 
HETATM    6  C   UNK N   1      38.123  37.823  53.161  0.00  0.00     0.019 A 
HETATM    7  C   UNK N   1      36.736  37.611  53.713  0.00  0.00     0.191 C 
HETATM    8  S   UNK N   1      35.668  37.222  52.313  0.00  0.00     0.196 S 
HETATM    9  O   UNK N   1      34.387  36.500  52.753  0.00  0.00    -0.221 OA
HETATM   10  O   UNK N   1      35.120  38.519  51.697  0.00  0.00    -0.221 OA
HETATM   11  C   UNK N   1      36.518  36.309  51.065  0.00  0.00     0.141 A 
HETATM   12  N   UNK N   1      35.831  35.475  50.240  0.00  0.00    -0.356 N 
ATOM     13  HN  UNK N   1      34.814  35.432  50.308  1.00  0.00     0.166 HD
HETATM   14  C   UNK N   1      36.469  34.697  49.328  0.00  0.00     0.089 A 
HETATM   15  C   UNK N   1      37.857  34.718  49.248  0.00  0.00     0.018 A 
HETATM   16  C   UNK N   1      38.585  35.568  50.081  0.00  0.00     0.018 A 
HETATM   17  C   UNK N   1      37.921  36.418  50.994  0.00  0.00     0.031 A 
ENDROOT
BRANCH   4  18
HETATM   18  C   UNK N   1      40.863  37.808  50.710  0.00  0.00     0.126 C 
HETATM   19  C   UNK N   1      40.471  38.851  49.634  0.00  0.00     0.030 C 
HETATM   20  C   UNK N   1      41.671  39.272  48.766  0.00  0.00     0.022 C 
HETATM   21  C   UNK N   1      42.715  38.156  48.684  0.00  0.00     0.117 C 
HETATM   22  N   UNK N   1      43.247  37.822  50.040  0.00  0.00    -0.404 N 
HETATM   23  C   UNK N   1      42.305  38.038  51.173  0.00  0.00     0.144 C 
BRANCH  22  24
HETATM   24  C   UNK N   1      44.626  38.281  50.352  0.00  0.00     0.103 C 
HETATM   25  C   UNK N   1      45.695  37.728  49.385  0.00  0.00     0.029 C 
HETATM   26  C   UNK N   1      47.071  38.224  49.828  0.00  0.00     0.028 C 
HETATM   27  C   UNK N   1      47.288  37.845  51.299  0.00  0.00     0.167 C 
HETATM   28  O   UNK N   1      46.299  38.443  52.120  0.00  0.00    -0.389 OA
HETATM   29  C   UNK N   1      45.019  37.921  51.802  0.00  0.00     0.192 C 
ENDBRANCH  22  24
ENDBRANCH   4  18
BRANCH   1  30
HETATM   30  C   UNK N   1      39.186  39.135  55.130  0.00  0.00     0.272 C 
HETATM   31  O   UNK N   1      39.469  38.395  56.061  0.00  0.00    -0.266 OA
HETATM   32  N   UNK N   1      39.035  40.492  55.364  0.00  0.00    -0.343 N 
HETATM   33  C   UNK N   1      39.429  41.081  56.639  0.00  0.00     0.152 C 
HETATM   34  C   UNK N   1      38.493  41.428  54.381  0.00  0.00     0.152 C 
HETATM   35  C   UNK N   1      38.296  41.962  57.175  0.00  0.00     0.187 C 
HETATM   36  O   UNK N   1      37.921  42.925  56.205  0.00  0.00    -0.388 OA
HETATM   37  C   UNK N   1      37.402  42.266  55.064  0.00  0.00     0.187 C 
ENDBRANCH   1  30
TORSDOF 3
ENDMDL
MODEL 7
REMARK VINA RESULT:      -7.9      3.547      6.761
REMARK  3 active torsions:
REMARK  status: ('A' for Active; 'I' for Inactive)
REMARK    1  A    between atoms: C_2  and  C_3 
REMARK       I    between atoms: C_2  and  N_32 
REMARK    2  A    between atoms: N_6  and  C_7 
REMARK    3  A    between atoms: N_11  and  C_12 
ROOT
HETATM    1  C   UNK N   1      37.688  36.276  52.975  0.00  0.00     0.126 A 
HETATM    2  N   UNK N   1      38.779  36.324  52.194  0.00  0.00    -0.292 N 
ATOM      3  HN  UNK N   1      39.614  35.751  52.315  1.00  0.00     0.187 HD
HETATM    4  N   UNK N   1      38.607  37.226  51.242  0.00  0.00    -0.284 N 
HETATM    5  C   UNK N   1      37.355  37.758  51.351  0.00  0.00     0.074 A 
HETATM    6  C   UNK N   1      36.763  37.197  52.497  0.00  0.00     0.019 A 
HETATM    7  C   UNK N   1      35.414  37.514  53.090  0.00  0.00     0.191 C 
HETATM    8  S   UNK N   1      34.958  39.159  52.508  0.00  0.00     0.196 S 
HETATM    9  O   UNK N   1      33.445  39.401  52.601  0.00  0.00    -0.221 OA
HETATM   10  O   UNK N   1      35.522  40.225  53.462  0.00  0.00    -0.221 OA
HETATM   11  C   UNK N   1      35.556  39.474  50.878  0.00  0.00     0.141 A 
HETATM   12  N   UNK N   1      34.907  40.354  50.070  0.00  0.00    -0.356 N 
ATOM     13  HN  UNK N   1      34.111  40.876  50.438  1.00  0.00     0.166 HD
HETATM   14  C   UNK N   1      35.293  40.552  48.784  0.00  0.00     0.089 A 
HETATM   15  C   UNK N   1      36.353  39.821  48.257  0.00  0.00     0.018 A 
HETATM   16  C   UNK N   1      37.038  38.915  49.068  0.00  0.00     0.018 A 
HETATM   17  C   UNK N   1      36.672  38.746  50.422  0.00  0.00     0.031 A 
ENDROOT
BRANCH   4  18
HETATM   18  C   UNK N   1      39.714  37.560  50.334  0.00  0.00     0.126 C 
HETATM   19  C   UNK N   1      40.673  38.575  51.007  0.00  0.00     0.030 C 
HETATM   20  C   UNK N   1      42.091  38.521  50.409  0.00  0.00     0.022 C 
HETATM   21  C   UNK N   1      42.061  38.049  48.953  0.00  0.00     0.117 C 
HETATM   22  N   UNK N   1      41.486  36.673  48.849  0.00  0.00    -0.404 N 
HETATM   23  C   UNK N   1      40.486  36.313  49.890  0.00  0.00     0.144 C 
BRANCH  22  24
HETATM   24  C   UNK N   1      42.439  35.567  48.568  0.00  0.00     0.103 C 
HETATM   25  C   UNK N   1      42.381  35.057  47.112  0.00  0.00     0.029 C 
HETATM   26  C   UNK N   1      43.363  33.896  46.954  0.00  0.00     0.028 C 
HETATM   27  C   UNK N   1      43.052  32.831  48.013  0.00  0.00     0.167 C 
HETATM   28  O   UNK N   1      43.186  33.370  49.317  0.00  0.00    -0.389 OA
HETATM   29  C   UNK N   1      42.215  34.381  49.531  0.00  0.00     0.192 C 
ENDBRANCH  22  24
ENDBRANCH   4  18
BRANCH   1  30
HETATM   30  C   UNK N   1      37.510  35.291  54.090  0.00  0.00     0.272 C 
HETATM   31  O   UNK N   1      36.954  34.234  53.826  0.00  0.00    -0.266 OA
HETATM   32  N   UNK N   1      38.054  35.475  55.349  0.00  0.00    -0.343 N 
HETATM   33  C   UNK N   1      38.180  34.359  56.282  0.00  0.00     0.152 C 
HETATM   34  C   UNK N   1      38.545  36.761  55.840  0.00  0.00     0.152 C 
HETATM   35  C   UNK N   1      37.618  34.761  57.649  0.00  0.00     0.187 C 
HETATM   36  O   UNK N   1      38.242  35.948  58.108  0.00  0.00    -0.388 OA
HETATM   37  C   UNK N   1      37.934  37.013  57.227  0.00  0.00     0.187 C 
ENDBRANCH   1  30
TORSDOF 3
ENDMDL
MODEL 8
REMARK VINA RESULT:      -7.9      4.057      8.115
REMARK  3 active torsions:
REMARK  status: ('A' for Active; 'I' for Inactive)
REMARK    1  A    between atoms: C_2  and  C_3 
REMARK       I    between atoms: C_2  and  N_32 
REMARK    2  A    between atoms: N_6  and  C_7 
REMARK    3  A    between atoms: N_11  and  C_12 
ROOT
HETATM    1  C   UNK N   1      40.142  38.487  51.261  0.00  0.00     0.126 A 
HETATM    2  N   UNK N   1      40.605  38.736  52.496  0.00  0.00    -0.292 N 
ATOM      3  HN  UNK N   1      40.026  38.867  53.325  1.00  0.00     0.187 HD
HETATM    4  N   UNK N   1      41.927  38.784  52.476  0.00  0.00    -0.284 N 
HETATM    5  C   UNK N   1      42.365  38.510  51.214  0.00  0.00     0.074 A 
HETATM    6  C   UNK N   1      41.227  38.367  50.400  0.00  0.00     0.019 A 
HETATM    7  C   UNK N   1      41.178  38.132  48.912  0.00  0.00     0.191 C 
HETATM    8  S   UNK N   1      42.748  38.708  48.237  0.00  0.00     0.196 S 
HETATM    9  O   UNK N   1      43.045  38.086  46.865  0.00  0.00    -0.221 OA
HETATM   10  O   UNK N   1      42.656  40.207  47.906  0.00  0.00    -0.221 OA
HETATM   11  C   UNK N   1      44.085  38.449  49.358  0.00  0.00     0.141 A 
HETATM   12  N   UNK N   1      45.351  38.291  48.888  0.00  0.00    -0.356 N 
ATOM     13  HN  UNK N   1      45.528  38.387  47.888  1.00  0.00     0.166 HD
HETATM   14  C   UNK N   1      46.385  38.005  49.720  0.00  0.00     0.089 A 
HETATM   15  C   UNK N   1      46.154  37.835  51.081  0.00  0.00     0.018 A 
HETATM   16  C   UNK N   1      44.865  37.996  51.589  0.00  0.00     0.018 A 
HETATM   17  C   UNK N   1      43.796  38.346  50.733  0.00  0.00     0.031 A 
ENDROOT
BRANCH   4  18
HETATM   18  C   UNK N   1      42.668  39.173  53.685  0.00  0.00     0.126 C 
HETATM   19  C   UNK N   1      43.396  40.522  53.458  0.00  0.00     0.030 C 
HETATM   20  C   UNK N   1      43.681  41.259  54.780  0.00  0.00     0.022 C 
HETATM   21  C   UNK N   1      43.824  40.275  55.944  0.00  0.00     0.117 C 
HETATM   22  N   UNK N   1      42.567  39.492  56.139  0.00  0.00    -0.404 N 
HETATM   23  C   UNK N   1      41.755  39.260  54.912  0.00  0.00     0.144 C 
BRANCH  22  24
HETATM   24  C   UNK N   1      41.731  39.846  57.315  0.00  0.00     0.103 C 
HETATM   25  C   UNK N   1      40.425  40.583  56.946  0.00  0.00     0.029 C 
HETATM   26  C   UNK N   1      39.674  40.936  58.229  0.00  0.00     0.028 C 
HETATM   27  C   UNK N   1      40.610  41.726  59.154  0.00  0.00     0.167 C 
HETATM   28  O   UNK N   1      41.750  40.953  59.488  0.00  0.00    -0.389 OA
HETATM   29  C   UNK N   1      42.525  40.698  58.329  0.00  0.00     0.192 C 
ENDBRANCH  22  24
ENDBRANCH   4  18
BRANCH   1  30
HETATM   30  C   UNK N   1      38.693  38.271  50.947  0.00  0.00     0.272 C 
HETATM   31  O   UNK N   1      38.104  39.166  50.356  0.00  0.00    -0.266 OA
HETATM   32  N   UNK N   1      38.044  37.071  51.180  0.00  0.00    -0.343 N 
HETATM   33  C   UNK N   1      36.766  36.773  50.539  0.00  0.00     0.152 C 
HETATM   34  C   UNK N   1      38.568  36.023  52.054  0.00  0.00     0.152 C 
HETATM   35  C   UNK N   1      35.766  36.276  51.587  0.00  0.00     0.187 C 
HETATM   36  O   UNK N   1      36.305  35.176  52.301  0.00  0.00    -0.388 OA
HETATM   37  C   UNK N   1      37.451  35.597  53.019  0.00  0.00     0.187 C 
ENDBRANCH   1  30
TORSDOF 3
ENDMDL
MODEL 9
REMARK VINA RESULT:      -7.8      4.466      8.584
REMARK  3 active torsions:
REMARK  status: ('A' for Active; 'I' for Inactive)
REMARK    1  A    between atoms: C_2  and  C_3 
REMARK       I    between atoms: C_2  and  N_32 
REMARK    2  A    between atoms: N_6  and  C_7 
REMARK    3  A    between atoms: N_11  and  C_12 
ROOT
HETATM    1  C   UNK N   1      38.257  37.674  51.642  0.00  0.00     0.126 A 
HETATM    2  N   UNK N   1      39.364  38.159  52.226  0.00  0.00    -0.292 N 
ATOM      3  HN  UNK N   1      40.320  37.907  51.973  1.00  0.00     0.187 HD
HETATM    4  N   UNK N   1      39.030  39.012  53.179  0.00  0.00    -0.284 N 
HETATM    5  C   UNK N   1      37.672  39.147  53.202  0.00  0.00     0.074 A 
HETATM    6  C   UNK N   1      37.149  38.251  52.252  0.00  0.00     0.019 A 
HETATM    7  C   UNK N   1      35.700  37.967  51.949  0.00  0.00     0.191 C 
HETATM    8  S   UNK N   1      34.754  38.447  53.407  0.00  0.00     0.196 S 
HETATM    9  O   UNK N   1      33.275  38.694  53.076  0.00  0.00    -0.221 OA
HETATM   10  O   UNK N   1      34.678  37.269  54.392  0.00  0.00    -0.221 OA
HETATM   11  C   UNK N   1      35.464  39.837  54.230  0.00  0.00     0.141 A 
HETATM   12  N   UNK N   1      34.681  40.670  54.966  0.00  0.00    -0.356 N 
ATOM     13  HN  UNK N   1      33.693  40.447  55.089  1.00  0.00     0.166 HD
HETATM   14  C   UNK N   1      35.185  41.793  55.538  0.00  0.00     0.089 A 
HETATM   15  C   UNK N   1      36.521  42.130  55.349  0.00  0.00     0.018 A 
HETATM   16  C   UNK N   1      37.346  41.289  54.601  0.00  0.00     0.018 A 
HETATM   17  C   UNK N   1      36.838  40.092  54.049  0.00  0.00     0.031 A 
ENDROOT
BRANCH   4  18
HETATM   18  C   UNK N   1      40.064  39.581  54.056  0.00  0.00     0.126 C 
HETATM   19  C   UNK N   1      40.126  38.798  55.391  0.00  0.00     0.030 C 
HETATM   20  C   UNK N   1      41.498  38.928  56.079  0.00  0.00     0.022 C 
HETATM   21  C   UNK N   1      42.183  40.245  55.706  0.00  0.00     0.117 C 
HETATM   22  N   UNK N   1      42.419  40.326  54.232  0.00  0.00    -0.404 N 
HETATM   23  C   UNK N   1      41.440  39.595  53.382  0.00  0.00     0.144 C 
BRANCH  22  24
HETATM   24  C   UNK N   1      43.819  40.150  53.766  0.00  0.00     0.103 C 
HETATM   25  C   UNK N   1      44.162  38.696  53.372  0.00  0.00     0.029 C 
HETATM   26  C   UNK N   1      45.631  38.627  52.957  0.00  0.00     0.028 C 
HETATM   27  C   UNK N   1      46.497  39.200  54.086  0.00  0.00     0.167 C 
HETATM   28  O   UNK N   1      46.155  40.553  54.340  0.00  0.00    -0.389 OA
HETATM   29  C   UNK N   1      44.827  40.638  54.829  0.00  0.00     0.192 C 
ENDBRANCH  22  24
ENDBRANCH   4  18
BRANCH   1  30
HETATM   30  C   UNK N   1      38.278  36.757  50.457  0.00  0.00     0.272 C 
HETATM   31  O   UNK N   1      38.604  37.235  49.380  0.00  0.00    -0.266 OA
HETATM   32  N   UNK N   1      38.071  35.392  50.559  0.00  0.00    -0.343 N 
HETATM   33  C   UNK N   1      38.455  34.493  49.476  0.00  0.00     0.152 C 
HETATM   34  C   UNK N   1      37.477  34.748  51.729  0.00  0.00     0.152 C 
HETATM   35  C   UNK N   1      37.292  33.552  49.146  0.00  0.00     0.187 C 
HETATM   36  O   UNK N   1      36.863  32.872  50.314  0.00  0.00    -0.388 OA
HETATM   37  C   UNK N   1      36.359  33.811  51.247  0.00  0.00     0.187 C 
ENDBRANCH   1  30
TORSDOF 3
ENDMDL
