MODEL 1
REMARK VINA RESULT:      -8.5      0.000      0.000
REMARK  5 active torsions:
REMARK  status: ('A' for Active; 'I' for Inactive)
REMARK    1  A    between atoms: C_2  and  C_3 
REMARK       I    between atoms: C_2  and  N_32 
REMARK    2  A    between atoms: N_6  and  C_7 
REMARK    3  A    between atoms: N_10  and  C_11 
REMARK    4  A    between atoms: C_11  and  C_12 
REMARK    5  A    between atoms: C_12  and  N_13 
ROOT
HETATM    1  C   UNK N   1      40.925  39.486  54.045  0.00  0.00     0.126 A 
HETATM    2  N   UNK N   1      40.482  39.090  52.838  0.00  0.00    -0.292 N 
ATOM      3  HN  UNK N   1      39.503  39.051  52.553  1.00  0.00     0.187 HD
HETATM    4  N   UNK N   1      41.516  38.757  52.075  0.00  0.00    -0.284 N 
HETATM    5  C   UNK N   1      42.669  38.922  52.788  0.00  0.00     0.072 A 
HETATM    6  C   UNK N   1      42.313  39.432  54.045  0.00  0.00     0.019 A 
HETATM    7  C   UNK N   1      43.223  39.896  55.155  0.00  0.00     0.189 C 
HETATM    8  S   UNK N   1      44.846  40.198  54.443  0.00  0.00     0.180 S 
HETATM    9  O   UNK N   1      45.953  40.079  55.501  0.00  0.00    -0.222 OA
HETATM   10  O   UNK N   1      44.955  41.672  54.023  0.00  0.00    -0.222 OA
HETATM   11  C   UNK N   1      45.180  39.179  53.039  0.00  0.00     0.072 A 
HETATM   12  C   UNK N   1      46.501  38.916  52.658  0.00  0.00     0.024 A 
HETATM   13  C   UNK N   1      46.760  38.064  51.589  0.00  0.00     0.002 A 
HETATM   14  C   UNK N   1      45.703  37.458  50.912  0.00  0.00     0.001 A 
HETATM   15  C   UNK N   1      44.381  37.724  51.283  0.00  0.00     0.015 A 
HETATM   16  C   UNK N   1      44.090  38.617  52.340  0.00  0.00     0.014 A 
ENDROOT
BRANCH   4  17
HETATM   17  C   UNK N   1      41.373  38.468  50.629  0.00  0.00     0.138 C 
HETATM   18  C   UNK N   1      41.199  36.991  50.332  0.00  0.00     0.059 C 
HETATM   19  C   UNK N   1      39.750  36.739  50.728  0.00  0.00     0.274 C 
HETATM   20  N   UNK N   1      39.025  38.008  50.503  0.00  0.00     0.092 N 
HETATM   21  C   UNK N   1      40.047  38.990  50.084  0.00  0.00     0.299 C 
BRANCH  20  22
HETATM   22  C   UNK N   1      37.913  37.885  49.541  0.00  0.00     0.302 C 
BRANCH  22  23
HETATM   23  C   UNK N   1      37.421  39.271  49.094  0.00  0.00     0.303 C 
BRANCH  23  24
HETATM   24  N   UNK N   1      35.972  39.240  48.824  0.00  0.00     0.102 N 
HETATM   25  C   UNK N   1      35.648  39.825  47.514  0.00  0.00     0.353 A 
HETATM   26  C   UNK N   1      34.951  41.020  48.136  0.00  0.00     0.295 A 
HETATM   27  F   UNK N   1      35.661  42.197  47.972  0.00  0.00    -0.203 F 
HETATM   28  F   UNK N   1      33.604  41.108  47.829  0.00  0.00    -0.203 F 
HETATM   29  C   UNK N   1      35.240  40.344  49.464  0.00  0.00     0.353 A 
ENDBRANCH  23  24
ENDBRANCH  22  23
ENDBRANCH  20  22
ENDBRANCH   4  17
BRANCH   1  30
HETATM   30  C   UNK N   1      40.059  39.958  55.180  0.00  0.00     0.272 C 
HETATM   31  O   UNK N   1      39.632  41.104  55.124  0.00  0.00    -0.266 OA
HETATM   32  N   UNK N   1      39.711  39.173  56.262  0.00  0.00    -0.343 N 
HETATM   33  C   UNK N   1      40.099  37.758  56.330  0.00  0.00     0.152 C 
HETATM   34  C   UNK N   1      38.781  39.743  57.249  0.00  0.00     0.152 C 
HETATM   35  C   UNK N   1      39.637  37.050  57.609  0.00  0.00     0.187 C 
HETATM   36  O   UNK N   1      38.349  37.488  57.987  0.00  0.00    -0.388 OA
HETATM   37  C   UNK N   1      38.492  38.820  58.432  0.00  0.00     0.187 C 
ENDBRANCH   1  30
TORSDOF 5
ENDMDL
MODEL 2
REMARK VINA RESULT:      -8.2      4.082      5.117
REMARK  5 active torsions:
REMARK  status: ('A' for Active; 'I' for Inactive)
REMARK    1  A    between atoms: C_2  and  C_3 
REMARK       I    between atoms: C_2  and  N_32 
REMARK    2  A    between atoms: N_6  and  C_7 
REMARK    3  A    between atoms: N_10  and  C_11 
REMARK    4  A    between atoms: C_11  and  C_12 
REMARK    5  A    between atoms: C_12  and  N_13 
ROOT
HETATM    1  C   UNK N   1      40.360  38.762  53.904  0.00  0.00     0.126 A 
HETATM    2  N   UNK N   1      40.617  38.500  52.609  0.00  0.00    -0.292 N 
ATOM      3  HN  UNK N   1      39.918  38.251  51.908  1.00  0.00     0.187 HD
HETATM    4  N   UNK N   1      41.921  38.614  52.386  0.00  0.00    -0.284 N 
HETATM    5  C   UNK N   1      42.547  38.945  53.553  0.00  0.00     0.072 A 
HETATM    6  C   UNK N   1      41.554  39.088  54.534  0.00  0.00     0.019 A 
HETATM    7  C   UNK N   1      41.711  39.560  55.958  0.00  0.00     0.189 C 
HETATM    8  S   UNK N   1      43.282  40.423  56.080  0.00  0.00     0.180 S 
HETATM    9  O   UNK N   1      43.820  40.409  57.518  0.00  0.00    -0.222 OA
HETATM   10  O   UNK N   1      43.065  41.923  55.830  0.00  0.00    -0.222 OA
HETATM   11  C   UNK N   1      44.486  39.823  54.934  0.00  0.00     0.072 A 
HETATM   12  C   UNK N   1      45.850  40.008  55.183  0.00  0.00     0.024 A 
HETATM   13  C   UNK N   1      46.795  39.480  54.309  0.00  0.00     0.002 A 
HETATM   14  C   UNK N   1      46.380  38.752  53.195  0.00  0.00     0.001 A 
HETATM   15  C   UNK N   1      45.018  38.571  52.936  0.00  0.00     0.015 A 
HETATM   16  C   UNK N   1      44.037  39.131  53.788  0.00  0.00     0.014 A 
ENDROOT
BRANCH   4  17
HETATM   17  C   UNK N   1      42.496  38.580  51.022  0.00  0.00     0.138 C 
HETATM   18  C   UNK N   1      43.510  37.469  50.831  0.00  0.00     0.059 C 
HETATM   19  C   UNK N   1      42.630  36.232  50.704  0.00  0.00     0.274 C 
HETATM   20  N   UNK N   1      41.354  36.682  50.109  0.00  0.00     0.092 N 
HETATM   21  C   UNK N   1      41.459  38.152  49.988  0.00  0.00     0.299 C 
BRANCH  20  22
HETATM   22  C   UNK N   1      41.038  36.019  48.830  0.00  0.00     0.302 C 
BRANCH  22  23
HETATM   23  C   UNK N   1      40.927  34.497  49.016  0.00  0.00     0.303 C 
BRANCH  23  24
HETATM   24  N   UNK N   1      41.614  33.792  47.918  0.00  0.00     0.102 N 
HETATM   25  C   UNK N   1      42.879  33.189  48.363  0.00  0.00     0.353 A 
HETATM   26  C   UNK N   1      43.714  34.148  47.537  0.00  0.00     0.295 A 
HETATM   27  F   UNK N   1      44.408  35.059  48.315  0.00  0.00    -0.203 F 
HETATM   28  F   UNK N   1      44.470  33.532  46.554  0.00  0.00    -0.203 F 
HETATM   29  C   UNK N   1      42.386  34.691  47.046  0.00  0.00     0.353 A 
ENDBRANCH  23  24
ENDBRANCH  22  23
ENDBRANCH  20  22
ENDBRANCH   4  17
BRANCH   1  30
HETATM   30  C   UNK N   1      38.998  38.752  54.542  0.00  0.00     0.272 C 
HETATM   31  O   UNK N   1      38.542  37.667  54.877  0.00  0.00    -0.266 OA
HETATM   32  N   UNK N   1      38.249  39.888  54.779  0.00  0.00    -0.343 N 
HETATM   33  C   UNK N   1      38.789  41.225  54.501  0.00  0.00     0.152 C 
HETATM   34  C   UNK N   1      36.974  39.729  55.494  0.00  0.00     0.152 C 
HETATM   35  C   UNK N   1      37.812  42.365  54.815  0.00  0.00     0.187 C 
HETATM   36  O   UNK N   1      37.078  42.088  55.988  0.00  0.00    -0.388 OA
HETATM   37  C   UNK N   1      36.195  41.033  55.669  0.00  0.00     0.187 C 
ENDBRANCH   1  30
TORSDOF 5
ENDMDL
MODEL 3
REMARK VINA RESULT:      -8.2      4.588      6.121
REMARK  5 active torsions:
REMARK  status: ('A' for Active; 'I' for Inactive)
REMARK    1  A    between atoms: C_2  and  C_3 
REMARK       I    between atoms: C_2  and  N_32 
REMARK    2  A    between atoms: N_6  and  C_7 
REMARK    3  A    between atoms: N_10  and  C_11 
REMARK    4  A    between atoms: C_11  and  C_12 
REMARK    5  A    between atoms: C_12  and  N_13 
ROOT
HETATM    1  C   UNK N   1      40.905  38.543  51.947  0.00  0.00     0.126 A 
HETATM    2  N   UNK N   1      41.357  38.160  50.739  0.00  0.00    -0.292 N 
ATOM      3  HN  UNK N   1      40.771  37.886  49.950  1.00  0.00     0.187 HD
HETATM    4  N   UNK N   1      42.684  38.195  50.732  0.00  0.00    -0.284 N 
HETATM    5  C   UNK N   1      43.127  38.595  51.960  0.00  0.00     0.072 A 
HETATM    6  C   UNK N   1      41.995  38.866  52.744  0.00  0.00     0.019 A 
HETATM    7  C   UNK N   1      41.942  39.448  54.135  0.00  0.00     0.189 C 
HETATM    8  S   UNK N   1      43.520  40.245  54.456  0.00  0.00     0.180 S 
HETATM    9  O   UNK N   1      43.810  40.328  55.962  0.00  0.00    -0.222 OA
HETATM   10  O   UNK N   1      43.436  41.728  54.061  0.00  0.00    -0.222 OA
HETATM   11  C   UNK N   1      44.859  39.496  53.580  0.00  0.00     0.072 A 
HETATM   12  C   UNK N   1      46.172  39.639  54.044  0.00  0.00     0.024 A 
HETATM   13  C   UNK N   1      47.216  38.997  53.385  0.00  0.00     0.002 A 
HETATM   14  C   UNK N   1      46.948  38.197  52.275  0.00  0.00     0.001 A 
HETATM   15  C   UNK N   1      45.640  38.058  51.803  0.00  0.00     0.015 A 
HETATM   16  C   UNK N   1      44.566  38.732  52.430  0.00  0.00     0.014 A 
ENDROOT
BRANCH   4  17
HETATM   17  C   UNK N   1      43.474  38.021  49.492  0.00  0.00     0.138 C 
HETATM   18  C   UNK N   1      44.487  36.895  49.585  0.00  0.00     0.059 C 
HETATM   19  C   UNK N   1      43.618  35.652  49.442  0.00  0.00     0.274 C 
HETATM   20  N   UNK N   1      42.465  36.039  48.602  0.00  0.00     0.092 N 
HETATM   21  C   UNK N   1      42.614  37.488  48.351  0.00  0.00     0.299 C 
BRANCH  20  22
HETATM   22  C   UNK N   1      42.351  35.246  47.363  0.00  0.00     0.302 C 
BRANCH  22  23
HETATM   23  C   UNK N   1      42.372  33.741  47.673  0.00  0.00     0.303 C 
BRANCH  23  24
HETATM   24  N   UNK N   1      42.683  32.969  46.456  0.00  0.00     0.102 N 
HETATM   25  C   UNK N   1      43.869  32.117  46.637  0.00  0.00     0.353 A 
HETATM   26  C   UNK N   1      44.699  32.937  45.668  0.00  0.00     0.295 A 
HETATM   27  F   UNK N   1      45.693  33.664  46.299  0.00  0.00    -0.203 F 
HETATM   28  F   UNK N   1      45.116  32.234  44.550  0.00  0.00    -0.203 F 
HETATM   29  C   UNK N   1      43.432  33.744  45.453  0.00  0.00     0.353 A 
ENDBRANCH  23  24
ENDBRANCH  22  23
ENDBRANCH  20  22
ENDBRANCH   4  17
BRANCH   1  30
HETATM   30  C   UNK N   1      39.458  38.649  52.343  0.00  0.00     0.272 C 
HETATM   31  O   UNK N   1      39.094  39.693  52.870  0.00  0.00    -0.266 OA
HETATM   32  N   UNK N   1      38.526  37.652  52.134  0.00  0.00    -0.343 N 
HETATM   33  C   UNK N   1      38.876  36.425  51.407  0.00  0.00     0.152 C 
HETATM   34  C   UNK N   1      37.128  37.937  52.491  0.00  0.00     0.152 C 
HETATM   35  C   UNK N   1      37.719  35.427  51.283  0.00  0.00     0.187 C 
HETATM   36  O   UNK N   1      36.498  36.100  51.061  0.00  0.00    -0.388 OA
HETATM   37  C   UNK N   1      36.179  36.760  52.268  0.00  0.00     0.187 C 
ENDBRANCH   1  30
TORSDOF 5
ENDMDL
MODEL 4
REMARK VINA RESULT:      -8.2      4.877      6.774
REMARK  5 active torsions:
REMARK  status: ('A' for Active; 'I' for Inactive)
REMARK    1  A    between atoms: C_2  and  C_3 
REMARK       I    between atoms: C_2  and  N_32 
REMARK    2  A    between atoms: N_6  and  C_7 
REMARK    3  A    between atoms: N_10  and  C_11 
REMARK    4  A    between atoms: C_11  and  C_12 
REMARK    5  A    between atoms: C_12  and  N_13 
ROOT
HETATM    1  C   UNK N   1      38.954  37.661  51.593  0.00  0.00     0.126 A 
HETATM    2  N   UNK N   1      39.951  37.378  50.734  0.00  0.00    -0.292 N 
ATOM      3  HN  UNK N   1      39.846  36.871  49.856  1.00  0.00     0.187 HD
HETATM    4  N   UNK N   1      41.093  37.862  51.208  0.00  0.00    -0.284 N 
HETATM    5  C   UNK N   1      40.857  38.468  52.409  0.00  0.00     0.072 A 
HETATM    6  C   UNK N   1      39.479  38.386  52.655  0.00  0.00     0.019 A 
HETATM    7  C   UNK N   1      38.695  39.004  53.786  0.00  0.00     0.189 C 
HETATM    8  S   UNK N   1      39.701  40.310  54.501  0.00  0.00     0.180 S 
HETATM    9  O   UNK N   1      39.310  40.583  55.961  0.00  0.00    -0.222 OA
HETATM   10  O   UNK N   1      39.367  41.647  53.821  0.00  0.00    -0.222 OA
HETATM   11  C   UNK N   1      41.435  40.007  54.342  0.00  0.00     0.072 A 
HETATM   12  C   UNK N   1      42.340  40.618  55.217  0.00  0.00     0.024 A 
HETATM   13  C   UNK N   1      43.698  40.328  55.126  0.00  0.00     0.002 A 
HETATM   14  C   UNK N   1      44.151  39.415  54.175  0.00  0.00     0.001 A 
HETATM   15  C   UNK N   1      43.252  38.808  53.293  0.00  0.00     0.015 A 
HETATM   16  C   UNK N   1      41.872  39.116  53.338  0.00  0.00     0.014 A 
ENDROOT
BRANCH   4  17
HETATM   17  C   UNK N   1      42.336  37.888  50.404  0.00  0.00     0.138 C 
HETATM   18  C   UNK N   1      43.332  36.820  50.815  0.00  0.00     0.059 C 
HETATM   19  C   UNK N   1      42.733  35.555  50.212  0.00  0.00     0.274 C 
HETATM   20  N   UNK N   1      41.993  35.976  49.003  0.00  0.00     0.092 N 
HETATM   21  C   UNK N   1      42.081  37.451  48.965  0.00  0.00     0.299 C 
BRANCH  20  22
HETATM   22  C   UNK N   1      42.481  35.337  47.765  0.00  0.00     0.302 C 
BRANCH  22  23
HETATM   23  C   UNK N   1      43.353  34.113  48.090  0.00  0.00     0.303 C 
BRANCH  23  24
HETATM   24  N   UNK N   1      43.246  33.106  47.018  0.00  0.00     0.102 N 
HETATM   25  C   UNK N   1      44.468  32.294  46.907  0.00  0.00     0.353 A 
HETATM   26  C   UNK N   1      44.831  32.890  45.560  0.00  0.00     0.295 A 
HETATM   27  F   UNK N   1      45.939  33.718  45.624  0.00  0.00    -0.203 F 
HETATM   28  F   UNK N   1      44.854  31.969  44.526  0.00  0.00    -0.203 F 
HETATM   29  C   UNK N   1      43.525  33.652  45.680  0.00  0.00     0.353 A 
ENDBRANCH  23  24
ENDBRANCH  22  23
ENDBRANCH  20  22
ENDBRANCH   4  17
BRANCH   1  30
HETATM   30  C   UNK N   1      37.509  37.294  51.401  0.00  0.00     0.272 C 
HETATM   31  O   UNK N   1      36.857  37.968  50.615  0.00  0.00    -0.266 OA
HETATM   32  N   UNK N   1      36.888  36.242  52.046  0.00  0.00    -0.343 N 
HETATM   33  C   UNK N   1      37.645  35.330  52.914  0.00  0.00     0.152 C 
HETATM   34  C   UNK N   1      35.493  35.948  51.687  0.00  0.00     0.152 C 
HETATM   35  C   UNK N   1      36.788  34.231  53.553  0.00  0.00     0.187 C 
HETATM   36  O   UNK N   1      35.818  33.758  52.643  0.00  0.00    -0.388 OA
HETATM   37  C   UNK N   1      34.877  34.798  52.484  0.00  0.00     0.187 C 
ENDBRANCH   1  30
TORSDOF 5
ENDMDL
MODEL 5
REMARK VINA RESULT:      -8.0      4.514      7.108
REMARK  5 active torsions:
REMARK  status: ('A' for Active; 'I' for Inactive)
REMARK    1  A    between atoms: C_2  and  C_3 
REMARK       I    between atoms: C_2  and  N_32 
REMARK    2  A    between atoms: N_6  and  C_7 
REMARK    3  A    between atoms: N_10  and  C_11 
REMARK    4  A    between atoms: C_11  and  C_12 
REMARK    5  A    between atoms: C_12  and  N_13 
ROOT
HETATM    1  C   UNK N   1      39.303  38.468  52.486  0.00  0.00     0.126 A 
HETATM    2  N   UNK N   1      40.498  38.463  51.866  0.00  0.00    -0.292 N 
ATOM      3  HN  UNK N   1      40.667  38.131  50.916  1.00  0.00     0.187 HD
HETATM    4  N   UNK N   1      41.421  38.957  52.682  0.00  0.00    -0.284 N 
HETATM    5  C   UNK N   1      40.837  39.285  53.872  0.00  0.00     0.072 A 
HETATM    6  C   UNK N   1      39.465  39.018  53.751  0.00  0.00     0.019 A 
HETATM    7  C   UNK N   1      38.366  39.317  54.740  0.00  0.00     0.189 C 
HETATM    8  S   UNK N   1      38.985  40.550  55.891  0.00  0.00     0.180 S 
HETATM    9  O   UNK N   1      38.241  40.489  57.233  0.00  0.00    -0.222 OA
HETATM   10  O   UNK N   1      38.621  41.954  55.384  0.00  0.00    -0.222 OA
HETATM   11  C   UNK N   1      40.735  40.462  56.117  0.00  0.00     0.072 A 
HETATM   12  C   UNK N   1      41.323  40.976  57.279  0.00  0.00     0.024 A 
HETATM   13  C   UNK N   1      42.694  40.849  57.479  0.00  0.00     0.002 A 
HETATM   14  C   UNK N   1      43.476  40.193  56.531  0.00  0.00     0.001 A 
HETATM   15  C   UNK N   1      42.896  39.685  55.365  0.00  0.00     0.015 A 
HETATM   16  C   UNK N   1      41.512  39.836  55.118  0.00  0.00     0.014 A 
ENDROOT
BRANCH   4  17
HETATM   17  C   UNK N   1      42.796  39.266  52.227  0.00  0.00     0.138 C 
HETATM   18  C   UNK N   1      43.802  38.193  52.599  0.00  0.00     0.059 C 
HETATM   19  C   UNK N   1      43.503  37.092  51.589  0.00  0.00     0.274 C 
HETATM   20  N   UNK N   1      42.994  37.762  50.373  0.00  0.00     0.092 N 
HETATM   21  C   UNK N   1      42.910  39.199  50.707  0.00  0.00     0.299 C 
BRANCH  20  22
HETATM   22  C   UNK N   1      43.811  37.495  49.173  0.00  0.00     0.302 C 
BRANCH  22  23
HETATM   23  C   UNK N   1      45.012  36.601  49.517  0.00  0.00     0.303 C 
BRANCH  23  24
HETATM   24  N   UNK N   1      46.274  37.270  49.152  0.00  0.00     0.102 N 
HETATM   25  C   UNK N   1      47.385  36.853  50.020  0.00  0.00     0.353 A 
HETATM   26  C   UNK N   1      47.487  38.218  50.673  0.00  0.00     0.295 A 
HETATM   27  F   UNK N   1      47.063  38.213  51.991  0.00  0.00    -0.203 F 
HETATM   28  F   UNK N   1      48.698  38.855  50.457  0.00  0.00    -0.203 F 
HETATM   29  C   UNK N   1      46.392  38.628  49.707  0.00  0.00     0.353 A 
ENDBRANCH  23  24
ENDBRANCH  22  23
ENDBRANCH  20  22
ENDBRANCH   4  17
BRANCH   1  30
HETATM   30  C   UNK N   1      38.007  38.001  51.884  0.00  0.00     0.272 C 
HETATM   31  O   UNK N   1      37.476  38.731  51.057  0.00  0.00    -0.266 OA
HETATM   32  N   UNK N   1      37.397  36.803  52.198  0.00  0.00    -0.343 N 
HETATM   33  C   UNK N   1      38.041  35.836  53.097  0.00  0.00     0.152 C 
HETATM   34  C   UNK N   1      36.178  36.441  51.459  0.00  0.00     0.152 C 
HETATM   35  C   UNK N   1      37.212  34.569  53.341  0.00  0.00     0.187 C 
HETATM   36  O   UNK N   1      36.557  34.163  52.158  0.00  0.00    -0.388 OA
HETATM   37  C   UNK N   1      35.551  35.122  51.908  0.00  0.00     0.187 C 
ENDBRANCH   1  30
TORSDOF 5
ENDMDL
MODEL 6
REMARK VINA RESULT:      -8.0      3.432      6.089
REMARK  5 active torsions:
REMARK  status: ('A' for Active; 'I' for Inactive)
REMARK    1  A    between atoms: C_2  and  C_3 
REMARK       I    between atoms: C_2  and  N_32 
REMARK    2  A    between atoms: N_6  and  C_7 
REMARK    3  A    between atoms: N_10  and  C_11 
REMARK    4  A    between atoms: C_11  and  C_12 
REMARK    5  A    between atoms: C_12  and  N_13 
ROOT
HETATM    1  C   UNK N   1      40.854  38.858  51.679  0.00  0.00     0.126 A 
HETATM    2  N   UNK N   1      40.697  38.966  53.011  0.00  0.00    -0.292 N 
ATOM      3  HN  UNK N   1      39.802  39.037  53.495  1.00  0.00     0.187 HD
HETATM    4  N   UNK N   1      41.888  38.967  53.597  0.00  0.00    -0.284 N 
HETATM    5  C   UNK N   1      42.857  38.870  52.640  0.00  0.00     0.072 A 
HETATM    6  C   UNK N   1      42.210  38.755  51.400  0.00  0.00     0.019 A 
HETATM    7  C   UNK N   1      42.826  38.505  50.047  0.00  0.00     0.189 C 
HETATM    8  S   UNK N   1      44.477  37.846  50.309  0.00  0.00     0.180 S 
HETATM    9  O   UNK N   1      45.388  38.117  49.102  0.00  0.00    -0.222 OA
HETATM   10  O   UNK N   1      44.419  36.310  50.332  0.00  0.00    -0.222 OA
HETATM   11  C   UNK N   1      45.212  38.411  51.813  0.00  0.00     0.072 A 
HETATM   12  C   UNK N   1      46.603  38.414  51.961  0.00  0.00     0.024 A 
HETATM   13  C   UNK N   1      47.179  38.917  53.123  0.00  0.00     0.002 A 
HETATM   14  C   UNK N   1      46.367  39.435  54.131  0.00  0.00     0.001 A 
HETATM   15  C   UNK N   1      44.976  39.426  53.993  0.00  0.00     0.015 A 
HETATM   16  C   UNK N   1      44.365  38.884  52.839  0.00  0.00     0.014 A 
ENDROOT
BRANCH   4  17
HETATM   17  C   UNK N   1      42.048  38.875  55.066  0.00  0.00     0.138 C 
HETATM   18  C   UNK N   1      42.266  40.223  55.727  0.00  0.00     0.059 C 
HETATM   19  C   UNK N   1      40.869  40.830  55.717  0.00  0.00     0.274 C 
HETATM   20  N   UNK N   1      39.919  39.699  55.792  0.00  0.00     0.092 N 
HETATM   21  C   UNK N   1      40.742  38.473  55.746  0.00  0.00     0.299 C 
BRANCH  20  22
HETATM   22  C   UNK N   1      39.033  39.756  56.971  0.00  0.00     0.302 C 
BRANCH  22  23
HETATM   23  C   UNK N   1      39.256  41.055  57.760  0.00  0.00     0.303 C 
BRANCH  23  24
HETATM   24  N   UNK N   1      38.043  41.893  57.726  0.00  0.00     0.102 N 
HETATM   25  C   UNK N   1      37.151  41.519  56.618  0.00  0.00     0.353 A 
HETATM   26  C   UNK N   1      37.406  42.817  55.875  0.00  0.00     0.295 A 
HETATM   27  F   UNK N   1      38.154  42.637  54.725  0.00  0.00    -0.203 F 
HETATM   28  F   UNK N   1      36.277  43.604  55.715  0.00  0.00    -0.203 F 
HETATM   29  C   UNK N   1      38.256  43.195  57.074  0.00  0.00     0.353 A 
ENDBRANCH  23  24
ENDBRANCH  22  23
ENDBRANCH  20  22
ENDBRANCH   4  17
BRANCH   1  30
HETATM   30  C   UNK N   1      39.738  38.805  50.671  0.00  0.00     0.272 C 
HETATM   31  O   UNK N   1      39.622  39.756  49.909  0.00  0.00    -0.266 OA
HETATM   32  N   UNK N   1      38.857  37.749  50.551  0.00  0.00    -0.343 N 
HETATM   33  C   UNK N   1      39.014  36.533  51.360  0.00  0.00     0.152 C 
HETATM   34  C   UNK N   1      37.874  37.799  49.458  0.00  0.00     0.152 C 
HETATM   35  C   UNK N   1      37.936  35.473  51.101  0.00  0.00     0.187 C 
HETATM   36  O   UNK N   1      37.608  35.417  49.729  0.00  0.00    -0.388 OA
HETATM   37  C   UNK N   1      36.914  36.611  49.434  0.00  0.00     0.187 C 
ENDBRANCH   1  30
TORSDOF 5
ENDMDL
MODEL 7
REMARK VINA RESULT:      -7.9      7.281     10.990
REMARK  5 active torsions:
REMARK  status: ('A' for Active; 'I' for Inactive)
REMARK    1  A    between atoms: C_2  and  C_3 
REMARK       I    between atoms: C_2  and  N_32 
REMARK    2  A    between atoms: N_6  and  C_7 
REMARK    3  A    between atoms: N_10  and  C_11 
REMARK    4  A    between atoms: C_11  and  C_12 
REMARK    5  A    between atoms: C_12  and  N_13 
ROOT
HETATM    1  C   UNK N   1      42.475  34.338  46.628  0.00  0.00     0.126 A 
HETATM    2  N   UNK N   1      42.628  35.280  47.578  0.00  0.00    -0.292 N 
ATOM      3  HN  UNK N   1      43.490  35.790  47.769  1.00  0.00     0.187 HD
HETATM    4  N   UNK N   1      41.481  35.443  48.226  0.00  0.00    -0.284 N 
HETATM    5  C   UNK N   1      40.550  34.587  47.710  0.00  0.00     0.072 A 
HETATM    6  C   UNK N   1      41.159  33.897  46.652  0.00  0.00     0.019 A 
HETATM    7  C   UNK N   1      40.526  32.928  45.684  0.00  0.00     0.189 C 
HETATM    8  S   UNK N   1      38.747  33.174  45.745  0.00  0.00     0.180 S 
HETATM    9  O   UNK N   1      37.991  31.912  45.306  0.00  0.00    -0.222 OA
HETATM   10  O   UNK N   1      38.333  34.191  44.670  0.00  0.00    -0.222 OA
HETATM   11  C   UNK N   1      38.187  33.750  47.319  0.00  0.00     0.072 A 
HETATM   12  C   UNK N   1      36.860  33.545  47.712  0.00  0.00     0.024 A 
HETATM   13  C   UNK N   1      36.440  33.945  48.977  0.00  0.00     0.002 A 
HETATM   14  C   UNK N   1      37.348  34.533  49.857  0.00  0.00     0.001 A 
HETATM   15  C   UNK N   1      38.673  34.748  49.465  0.00  0.00     0.015 A 
HETATM   16  C   UNK N   1      39.115  34.386  48.171  0.00  0.00     0.014 A 
ENDROOT
BRANCH   4  17
HETATM   17  C   UNK N   1      41.268  36.543  49.194  0.00  0.00     0.138 C 
HETATM   18  C   UNK N   1      41.644  36.167  50.615  0.00  0.00     0.059 C 
HETATM   19  C   UNK N   1      43.166  36.224  50.583  0.00  0.00     0.274 C 
HETATM   20  N   UNK N   1      43.528  37.240  49.572  0.00  0.00     0.092 N 
HETATM   21  C   UNK N   1      42.255  37.685  48.969  0.00  0.00     0.299 C 
BRANCH  20  22
HETATM   22  C   UNK N   1      44.327  38.353  50.120  0.00  0.00     0.302 C 
BRANCH  22  23
HETATM   23  C   UNK N   1      45.500  37.822  50.960  0.00  0.00     0.303 C 
BRANCH  23  24
HETATM   24  N   UNK N   1      46.609  37.399  50.085  0.00  0.00     0.102 N 
HETATM   25  C   UNK N   1      47.889  37.352  50.810  0.00  0.00     0.353 A 
HETATM   26  C   UNK N   1      48.455  38.529  50.040  0.00  0.00     0.295 A 
HETATM   27  F   UNK N   1      48.583  39.665  50.819  0.00  0.00    -0.203 F 
HETATM   28  F   UNK N   1      49.571  38.219  49.279  0.00  0.00    -0.203 F 
HETATM   29  C   UNK N   1      47.151  38.495  49.266  0.00  0.00     0.353 A 
ENDBRANCH  23  24
ENDBRANCH  22  23
ENDBRANCH  20  22
ENDBRANCH   4  17
BRANCH   1  30
HETATM   30  C   UNK N   1      43.544  33.883  45.673  0.00  0.00     0.272 C 
HETATM   31  O   UNK N   1      43.381  34.134  44.486  0.00  0.00    -0.266 OA
HETATM   32  N   UNK N   1      44.691  33.219  46.058  0.00  0.00    -0.343 N 
HETATM   33  C   UNK N   1      44.996  32.989  47.477  0.00  0.00     0.152 C 
HETATM   34  C   UNK N   1      45.689  32.919  45.020  0.00  0.00     0.152 C 
HETATM   35  C   UNK N   1      46.304  32.225  47.713  0.00  0.00     0.187 C 
HETATM   36  O   UNK N   1      47.297  32.634  46.796  0.00  0.00    -0.388 OA
HETATM   37  C   UNK N   1      46.901  32.142  45.533  0.00  0.00     0.187 C 
ENDBRANCH   1  30
TORSDOF 5
ENDMDL
MODEL 8
REMARK VINA RESULT:      -7.9      6.240      7.954
REMARK  5 active torsions:
REMARK  status: ('A' for Active; 'I' for Inactive)
REMARK    1  A    between atoms: C_2  and  C_3 
REMARK       I    between atoms: C_2  and  N_32 
REMARK    2  A    between atoms: N_6  and  C_7 
REMARK    3  A    between atoms: N_10  and  C_11 
REMARK    4  A    between atoms: C_11  and  C_12 
REMARK    5  A    between atoms: C_12  and  N_13 
ROOT
HETATM    1  C   UNK N   1      39.282  34.832  49.494  0.00  0.00     0.126 A 
HETATM    2  N   UNK N   1      40.353  34.229  48.946  0.00  0.00    -0.292 N 
ATOM      3  HN  UNK N   1      40.325  33.387  48.371  1.00  0.00     0.187 HD
HETATM    4  N   UNK N   1      41.452  34.900  49.272  0.00  0.00    -0.284 N 
HETATM    5  C   UNK N   1      41.110  35.961  50.060  0.00  0.00     0.072 A 
HETATM    6  C   UNK N   1      39.713  35.960  50.180  0.00  0.00     0.019 A 
HETATM    7  C   UNK N   1      38.833  36.988  50.846  0.00  0.00     0.189 C 
HETATM    8  S   UNK N   1      39.789  38.500  51.017  0.00  0.00     0.180 S 
HETATM    9  O   UNK N   1      39.261  39.372  52.166  0.00  0.00    -0.222 OA
HETATM   10  O   UNK N   1      39.551  39.399  49.793  0.00  0.00    -0.222 OA
HETATM   11  C   UNK N   1      41.523  38.202  51.176  0.00  0.00     0.072 A 
HETATM   12  C   UNK N   1      42.350  39.155  51.782  0.00  0.00     0.024 A 
HETATM   13  C   UNK N   1      43.704  38.890  51.960  0.00  0.00     0.002 A 
HETATM   14  C   UNK N   1      44.231  37.666  51.551  0.00  0.00     0.001 A 
HETATM   15  C   UNK N   1      43.412  36.713  50.937  0.00  0.00     0.015 A 
HETATM   16  C   UNK N   1      42.040  36.974  50.708  0.00  0.00     0.014 A 
ENDROOT
BRANCH   4  17
HETATM   17  C   UNK N   1      42.769  34.605  48.663  0.00  0.00     0.138 C 
HETATM   18  C   UNK N   1      42.907  33.162  48.213  0.00  0.00     0.059 C 
HETATM   19  C   UNK N   1      42.085  33.133  46.931  0.00  0.00     0.274 C 
HETATM   20  N   UNK N   1      42.167  34.489  46.347  0.00  0.00     0.092 N 
HETATM   21  C   UNK N   1      42.931  35.302  47.316  0.00  0.00     0.299 C 
BRANCH  20  22
HETATM   22  C   UNK N   1      42.749  34.509  44.991  0.00  0.00     0.302 C 
BRANCH  22  23
HETATM   23  C   UNK N   1      41.787  33.872  43.975  0.00  0.00     0.303 C 
BRANCH  23  24
HETATM   24  N   UNK N   1      42.519  32.964  43.073  0.00  0.00     0.102 N 
HETATM   25  C   UNK N   1      41.720  32.607  41.891  0.00  0.00     0.353 A 
HETATM   26  C   UNK N   1      41.573  31.163  42.333  0.00  0.00     0.295 A 
HETATM   27  F   UNK N   1      40.283  30.854  42.728  0.00  0.00    -0.203 F 
HETATM   28  F   UNK N   1      42.149  30.249  41.466  0.00  0.00    -0.203 F 
HETATM   29  C   UNK N   1      42.463  31.556  43.497  0.00  0.00     0.353 A 
ENDBRANCH  23  24
ENDBRANCH  22  23
ENDBRANCH  20  22
ENDBRANCH   4  17
BRANCH   1  30
HETATM   30  C   UNK N   1      37.855  34.381  49.341  0.00  0.00     0.272 C 
HETATM   31  O   UNK N   1      37.343  34.501  48.235  0.00  0.00    -0.266 OA
HETATM   32  N   UNK N   1      37.105  33.834  50.363  0.00  0.00    -0.343 N 
HETATM   33  C   UNK N   1      37.698  33.562  51.679  0.00  0.00     0.152 C 
HETATM   34  C   UNK N   1      35.753  33.355  50.038  0.00  0.00     0.152 C 
HETATM   35  C   UNK N   1      36.713  32.966  52.691  0.00  0.00     0.187 C 
HETATM   36  O   UNK N   1      35.843  32.048  52.063  0.00  0.00    -0.388 OA
HETATM   37  C   UNK N   1      34.984  32.809  51.240  0.00  0.00     0.187 C 
ENDBRANCH   1  30
TORSDOF 5
ENDMDL
MODEL 9
REMARK VINA RESULT:      -7.9      5.970      8.447
REMARK  5 active torsions:
REMARK  status: ('A' for Active; 'I' for Inactive)
REMARK    1  A    between atoms: C_2  and  C_3 
REMARK       I    between atoms: C_2  and  N_32 
REMARK    2  A    between atoms: N_6  and  C_7 
REMARK    3  A    between atoms: N_10  and  C_11 
REMARK    4  A    between atoms: C_11  and  C_12 
REMARK    5  A    between atoms: C_12  and  N_13 
ROOT
HETATM    1  C   UNK N   1      40.717  34.783  48.168  0.00  0.00     0.126 A 
HETATM    2  N   UNK N   1      39.565  34.361  48.721  0.00  0.00    -0.292 N 
ATOM      3  HN  UNK N   1      39.017  33.562  48.404  1.00  0.00     0.187 HD
HETATM    4  N   UNK N   1      39.252  35.149  49.744  0.00  0.00    -0.284 N 
HETATM    5  C   UNK N   1      40.205  36.120  49.867  0.00  0.00     0.072 A 
HETATM    6  C   UNK N   1      41.180  35.875  48.889  0.00  0.00     0.019 A 
HETATM    7  C   UNK N   1      42.493  36.588  48.683  0.00  0.00     0.189 C 
HETATM    8  S   UNK N   1      42.885  37.465  50.202  0.00  0.00     0.180 S 
HETATM    9  O   UNK N   1      43.816  38.658  49.937  0.00  0.00    -0.222 OA
HETATM   10  O   UNK N   1      43.754  36.570  51.101  0.00  0.00    -0.222 OA
HETATM   11  C   UNK N   1      41.447  37.954  51.104  0.00  0.00     0.072 A 
HETATM   12  C   UNK N   1      41.512  39.018  52.010  0.00  0.00     0.024 A 
HETATM   13  C   UNK N   1      40.362  39.439  52.672  0.00  0.00     0.002 A 
HETATM   14  C   UNK N   1      39.145  38.811  52.417  0.00  0.00     0.001 A 
HETATM   15  C   UNK N   1      39.076  37.741  51.519  0.00  0.00     0.015 A 
HETATM   16  C   UNK N   1      40.237  37.268  50.863  0.00  0.00     0.014 A 
ENDROOT
BRANCH   4  17
HETATM   17  C   UNK N   1      38.149  34.832  50.678  0.00  0.00     0.138 C 
HETATM   18  C   UNK N   1      36.834  35.482  50.290  0.00  0.00     0.059 C 
HETATM   19  C   UNK N   1      36.364  34.617  49.128  0.00  0.00     0.274 C 
HETATM   20  N   UNK N   1      36.901  33.261  49.369  0.00  0.00     0.092 N 
HETATM   21  C   UNK N   1      37.739  33.365  50.582  0.00  0.00     0.299 C 
BRANCH  20  22
HETATM   22  C   UNK N   1      35.854  32.227  49.478  0.00  0.00     0.302 C 
BRANCH  22  23
HETATM   23  C   UNK N   1      36.021  31.162  48.382  0.00  0.00     0.303 C 
BRANCH  23  24
HETATM   24  N   UNK N   1      36.456  31.787  47.119  0.00  0.00     0.102 N 
HETATM   25  C   UNK N   1      35.318  32.082  46.235  0.00  0.00     0.353 A 
HETATM   26  C   UNK N   1      35.736  31.032  45.222  0.00  0.00     0.295 A 
HETATM   27  F   UNK N   1      34.882  29.944  45.197  0.00  0.00    -0.203 F 
HETATM   28  F   UNK N   1      36.055  31.548  43.977  0.00  0.00    -0.203 F 
HETATM   29  C   UNK N   1      36.936  30.814  46.126  0.00  0.00     0.353 A 
ENDBRANCH  23  24
ENDBRANCH  22  23
ENDBRANCH  20  22
ENDBRANCH   4  17
BRANCH   1  30
HETATM   30  C   UNK N   1      41.408  34.139  46.997  0.00  0.00     0.272 C 
HETATM   31  O   UNK N   1      41.032  34.459  45.877  0.00  0.00    -0.266 OA
HETATM   32  N   UNK N   1      42.440  33.230  47.115  0.00  0.00    -0.343 N 
HETATM   33  C   UNK N   1      43.009  32.892  48.426  0.00  0.00     0.152 C 
HETATM   34  C   UNK N   1      43.078  32.756  45.878  0.00  0.00     0.152 C 
HETATM   35  C   UNK N   1      44.137  31.856  48.363  0.00  0.00     0.187 C 
HETATM   36  O   UNK N   1      44.953  32.070  47.231  0.00  0.00    -0.388 OA
HETATM   37  C   UNK N   1      44.177  31.718  46.106  0.00  0.00     0.187 C 
ENDBRANCH   1  30
TORSDOF 5
ENDMDL
