MODEL 1
REMARK VINA RESULT:      -8.2      0.000      0.000
REMARK  5 active torsions:
REMARK  status: ('A' for Active; 'I' for Inactive)
REMARK    1  A    between atoms: C_2  and  C_3 
REMARK       I    between atoms: C_2  and  N_33 
REMARK    2  A    between atoms: N_6  and  C_7 
REMARK    3  A    between atoms: N_10  and  C_11 
REMARK    4  A    between atoms: C_11  and  C_12 
REMARK    5  A    between atoms: C_12  and  C_13 
ROOT
HETATM    1  C   UNK N   1      38.231  40.519  55.217  0.00  0.00     0.126 A 
HETATM    2  N   UNK N   1      39.559  40.678  55.337  0.00  0.00    -0.292 N 
ATOM      3  HN  UNK N   1      40.020  41.268  56.029  1.00  0.00     0.187 HD
HETATM    4  N   UNK N   1      40.178  39.953  54.422  0.00  0.00    -0.285 N 
HETATM    5  C   UNK N   1      39.251  39.332  53.637  0.00  0.00     0.072 A 
HETATM    6  C   UNK N   1      37.985  39.645  54.163  0.00  0.00     0.019 A 
HETATM    7  C   UNK N   1      36.640  39.146  53.703  0.00  0.00     0.189 C 
HETATM    8  S   UNK N   1      36.926  37.643  52.749  0.00  0.00     0.180 S 
HETATM    9  O   UNK N   1      36.900  36.425  53.686  0.00  0.00    -0.222 OA
HETATM   10  O   UNK N   1      35.759  37.343  51.796  0.00  0.00    -0.222 OA
HETATM   11  C   UNK N   1      38.474  37.665  51.893  0.00  0.00     0.072 A 
HETATM   12  C   UNK N   1      38.656  36.904  50.732  0.00  0.00     0.024 A 
HETATM   13  C   UNK N   1      39.854  36.986  50.025  0.00  0.00     0.002 A 
HETATM   14  C   UNK N   1      40.861  37.841  50.467  0.00  0.00     0.001 A 
HETATM   15  C   UNK N   1      40.688  38.595  51.630  0.00  0.00     0.015 A 
HETATM   16  C   UNK N   1      39.496  38.501  52.388  0.00  0.00     0.014 A 
ENDROOT
BRANCH   4  17
HETATM   17  C   UNK N   1      41.641  39.837  54.439  0.00  0.00     0.111 C 
HETATM   18  C   UNK N   1      42.201  40.089  55.846  0.00  0.00     0.057 C 
HETATM   19  C   UNK N   1      43.712  39.744  55.833  0.00  0.00     0.274 C 
HETATM   20  N   UNK N   1      44.357  40.030  54.523  0.00  0.00     0.088 N 
HETATM   21  C   UNK N   1      43.743  41.186  53.850  0.00  0.00     0.274 C 
HETATM   22  C   UNK N   1      42.290  40.844  53.452  0.00  0.00     0.057 C 
BRANCH  20  23
HETATM   23  C   UNK N   1      45.824  40.134  54.624  0.00  0.00     0.272 C 
BRANCH  23  24
HETATM   24  C   UNK N   1      46.463  38.893  53.990  0.00  0.00     0.035 C 
BRANCH  24  25
HETATM   25  C   UNK N   1      46.214  38.798  52.473  0.00  0.00    -0.009 C 
HETATM   26  C   UNK N   1      44.989  37.946  52.137  0.00  0.00     0.031 C 
HETATM   27  C   UNK N   1      44.722  38.123  50.614  0.00  0.00     0.168 C 
HETATM   28  O   UNK N   1      45.892  38.194  49.792  0.00  0.00    -0.391 OA
HETATM   29  C   UNK N   1      46.984  37.529  50.387  0.00  0.00     0.168 C 
HETATM   30  C   UNK N   1      47.429  38.235  51.687  0.00  0.00     0.031 C 
ENDBRANCH  24  25
ENDBRANCH  23  24
ENDBRANCH  20  23
ENDBRANCH   4  17
BRANCH   1  31
HETATM   31  C   UNK N   1      37.238  41.273  56.041  0.00  0.00     0.272 C 
HETATM   32  O   UNK N   1      36.706  40.681  56.970  0.00  0.00    -0.266 OA
HETATM   33  N   UNK N   1      36.814  42.549  55.716  0.00  0.00    -0.343 N 
HETATM   34  C   UNK N   1      37.530  43.427  54.792  0.00  0.00     0.152 C 
HETATM   35  C   UNK N   1      35.596  43.108  56.295  0.00  0.00     0.152 C 
HETATM   36  C   UNK N   1      37.719  44.790  55.477  0.00  0.00     0.187 C 
HETATM   37  O   UNK N   1      36.467  45.328  55.867  0.00  0.00    -0.388 OA
HETATM   38  C   UNK N   1      35.887  44.501  56.862  0.00  0.00     0.187 C 
ENDBRANCH   1  31
TORSDOF 5
ENDMDL
MODEL 2
REMARK VINA RESULT:      -8.1      3.245      4.191
REMARK  5 active torsions:
REMARK  status: ('A' for Active; 'I' for Inactive)
REMARK    1  A    between atoms: C_2  and  C_3 
REMARK       I    between atoms: C_2  and  N_33 
REMARK    2  A    between atoms: N_6  and  C_7 
REMARK    3  A    between atoms: N_10  and  C_11 
REMARK    4  A    between atoms: C_11  and  C_12 
REMARK    5  A    between atoms: C_12  and  C_13 
ROOT
HETATM    1  C   UNK N   1      39.241  41.864  57.785  0.00  0.00     0.126 A 
HETATM    2  N   UNK N   1      40.028  41.651  56.719  0.00  0.00    -0.292 N 
ATOM      3  HN  UNK N   1      40.533  42.375  56.207  1.00  0.00     0.187 HD
HETATM    4  N   UNK N   1      40.048  40.362  56.432  0.00  0.00    -0.285 N 
HETATM    5  C   UNK N   1      39.220  39.697  57.289  0.00  0.00     0.072 A 
HETATM    6  C   UNK N   1      38.725  40.643  58.204  0.00  0.00     0.019 A 
HETATM    7  C   UNK N   1      37.832  40.404  59.394  0.00  0.00     0.189 C 
HETATM    8  S   UNK N   1      37.956  38.655  59.811  0.00  0.00     0.180 S 
HETATM    9  O   UNK N   1      39.105  38.443  60.810  0.00  0.00    -0.222 OA
HETATM   10  O   UNK N   1      36.737  38.173  60.613  0.00  0.00    -0.222 OA
HETATM   11  C   UNK N   1      38.243  37.636  58.393  0.00  0.00     0.072 A 
HETATM   12  C   UNK N   1      37.853  36.291  58.392  0.00  0.00     0.024 A 
HETATM   13  C   UNK N   1      38.017  35.519  57.244  0.00  0.00     0.002 A 
HETATM   14  C   UNK N   1      38.553  36.092  56.095  0.00  0.00     0.001 A 
HETATM   15  C   UNK N   1      38.953  37.431  56.094  0.00  0.00     0.015 A 
HETATM   16  C   UNK N   1      38.833  38.227  57.258  0.00  0.00     0.014 A 
ENDROOT
BRANCH   4  17
HETATM   17  C   UNK N   1      40.955  39.850  55.398  0.00  0.00     0.111 C 
HETATM   18  C   UNK N   1      42.420  40.130  55.759  0.00  0.00     0.057 C 
HETATM   19  C   UNK N   1      43.320  39.383  54.741  0.00  0.00     0.274 C 
HETATM   20  N   UNK N   1      42.708  39.296  53.387  0.00  0.00     0.088 N 
HETATM   21  C   UNK N   1      41.876  40.471  53.085  0.00  0.00     0.274 C 
HETATM   22  C   UNK N   1      40.646  40.491  54.019  0.00  0.00     0.057 C 
BRANCH  20  23
HETATM   23  C   UNK N   1      43.698  39.004  52.335  0.00  0.00     0.272 C 
BRANCH  23  24
HETATM   24  C   UNK N   1      45.034  38.632  52.989  0.00  0.00     0.035 C 
BRANCH  24  25
HETATM   25  C   UNK N   1      46.001  37.924  52.021  0.00  0.00    -0.009 C 
HETATM   26  C   UNK N   1      47.391  38.562  52.019  0.00  0.00     0.031 C 
HETATM   27  C   UNK N   1      48.315  37.624  51.189  0.00  0.00     0.168 C 
HETATM   28  O   UNK N   1      47.708  37.032  50.035  0.00  0.00    -0.391 OA
HETATM   29  C   UNK N   1      46.647  37.822  49.546  0.00  0.00     0.168 C 
HETATM   30  C   UNK N   1      45.482  37.883  50.558  0.00  0.00     0.031 C 
ENDBRANCH  24  25
ENDBRANCH  23  24
ENDBRANCH  20  23
ENDBRANCH   4  17
BRANCH   1  31
HETATM   31  C   UNK N   1      38.929  43.229  58.313  0.00  0.00     0.272 C 
HETATM   32  O   UNK N   1      39.641  43.667  59.206  0.00  0.00    -0.266 OA
HETATM   33  N   UNK N   1      37.808  43.940  57.924  0.00  0.00    -0.343 N 
HETATM   34  C   UNK N   1      37.031  43.632  56.724  0.00  0.00     0.152 C 
HETATM   35  C   UNK N   1      37.326  45.072  58.709  0.00  0.00     0.152 C 
HETATM   36  C   UNK N   1      36.853  44.932  55.924  0.00  0.00     0.187 C 
HETATM   37  O   UNK N   1      36.235  45.926  56.722  0.00  0.00    -0.388 OA
HETATM   38  C   UNK N   1      37.098  46.277  57.791  0.00  0.00     0.187 C 
ENDBRANCH   1  31
TORSDOF 5
ENDMDL
MODEL 3
REMARK VINA RESULT:      -8.0      2.899      5.900
REMARK  5 active torsions:
REMARK  status: ('A' for Active; 'I' for Inactive)
REMARK    1  A    between atoms: C_2  and  C_3 
REMARK       I    between atoms: C_2  and  N_33 
REMARK    2  A    between atoms: N_6  and  C_7 
REMARK    3  A    between atoms: N_10  and  C_11 
REMARK    4  A    between atoms: C_11  and  C_12 
REMARK    5  A    between atoms: C_12  and  C_13 
ROOT
HETATM    1  C   UNK N   1      37.886  38.066  52.253  0.00  0.00     0.126 A 
HETATM    2  N   UNK N   1      38.934  37.950  51.423  0.00  0.00    -0.292 N 
ATOM      3  HN  UNK N   1      38.903  37.535  50.491  1.00  0.00     0.187 HD
HETATM    4  N   UNK N   1      40.013  38.452  51.996  0.00  0.00    -0.285 N 
HETATM    5  C   UNK N   1      39.699  38.871  53.256  0.00  0.00     0.072 A 
HETATM    6  C   UNK N   1      38.317  38.676  53.426  0.00  0.00     0.019 A 
HETATM    7  C   UNK N   1      37.466  39.047  54.613  0.00  0.00     0.189 C 
HETATM    8  S   UNK N   1      38.370  40.295  55.548  0.00  0.00     0.180 S 
HETATM    9  O   UNK N   1      38.004  41.695  55.027  0.00  0.00    -0.222 OA
HETATM   10  O   UNK N   1      37.902  40.362  57.010  0.00  0.00    -0.222 OA
HETATM   11  C   UNK N   1      40.124  40.092  55.436  0.00  0.00     0.072 A 
HETATM   12  C   UNK N   1      40.962  40.571  56.451  0.00  0.00     0.024 A 
HETATM   13  C   UNK N   1      42.334  40.339  56.388  0.00  0.00     0.002 A 
HETATM   14  C   UNK N   1      42.867  39.616  55.325  0.00  0.00     0.001 A 
HETATM   15  C   UNK N   1      42.036  39.144  54.305  0.00  0.00     0.015 A 
HETATM   16  C   UNK N   1      40.644  39.399  54.324  0.00  0.00     0.014 A 
ENDROOT
BRANCH   4  17
HETATM   17  C   UNK N   1      41.261  38.581  51.235  0.00  0.00     0.111 C 
HETATM   18  C   UNK N   1      40.995  39.111  49.820  0.00  0.00     0.057 C 
HETATM   19  C   UNK N   1      42.361  39.419  49.154  0.00  0.00     0.274 C 
HETATM   20  N   UNK N   1      43.441  38.498  49.602  0.00  0.00     0.088 N 
HETATM   21  C   UNK N   1      42.925  37.153  49.902  0.00  0.00     0.274 C 
HETATM   22  C   UNK N   1      41.992  37.215  51.131  0.00  0.00     0.057 C 
BRANCH  20  23
HETATM   23  C   UNK N   1      44.591  38.484  48.681  0.00  0.00     0.272 C 
BRANCH  23  24
HETATM   24  C   UNK N   1      45.727  37.664  49.306  0.00  0.00     0.035 C 
BRANCH  24  25
HETATM   25  C   UNK N   1      46.456  38.412  50.437  0.00  0.00    -0.009 C 
HETATM   26  C   UNK N   1      47.934  38.026  50.531  0.00  0.00     0.031 C 
HETATM   27  C   UNK N   1      48.592  39.008  51.544  0.00  0.00     0.168 C 
HETATM   28  O   UNK N   1      47.784  39.352  52.675  0.00  0.00    -0.391 OA
HETATM   29  C   UNK N   1      46.844  38.342  52.967  0.00  0.00     0.168 C 
HETATM   30  C   UNK N   1      45.807  38.197  51.832  0.00  0.00     0.031 C 
ENDBRANCH  24  25
ENDBRANCH  23  24
ENDBRANCH  20  23
ENDBRANCH   4  17
BRANCH   1  31
HETATM   31  C   UNK N   1      36.531  37.511  51.945  0.00  0.00     0.272 C 
HETATM   32  O   UNK N   1      35.706  38.270  51.456  0.00  0.00    -0.266 OA
HETATM   33  N   UNK N   1      36.150  36.232  52.308  0.00  0.00    -0.343 N 
HETATM   34  C   UNK N   1      37.097  35.180  52.675  0.00  0.00     0.152 C 
HETATM   35  C   UNK N   1      34.742  35.848  52.342  0.00  0.00     0.152 C 
HETATM   36  C   UNK N   1      36.759  33.926  51.854  0.00  0.00     0.187 C 
HETATM   37  O   UNK N   1      35.414  33.536  52.071  0.00  0.00    -0.388 OA
HETATM   38  C   UNK N   1      34.546  34.539  51.570  0.00  0.00     0.187 C 
ENDBRANCH   1  31
TORSDOF 5
ENDMDL
MODEL 4
REMARK VINA RESULT:      -8.0      3.085      4.507
REMARK  5 active torsions:
REMARK  status: ('A' for Active; 'I' for Inactive)
REMARK    1  A    between atoms: C_2  and  C_3 
REMARK       I    between atoms: C_2  and  N_33 
REMARK    2  A    between atoms: N_6  and  C_7 
REMARK    3  A    between atoms: N_10  and  C_11 
REMARK    4  A    between atoms: C_11  and  C_12 
REMARK    5  A    between atoms: C_12  and  C_13 
ROOT
HETATM    1  C   UNK N   1      39.371  41.879  57.913  0.00  0.00     0.126 A 
HETATM    2  N   UNK N   1      40.229  41.649  56.906  0.00  0.00    -0.292 N 
ATOM      3  HN  UNK N   1      40.783  42.362  56.431  1.00  0.00     0.187 HD
HETATM    4  N   UNK N   1      40.245  40.359  56.622  0.00  0.00    -0.285 N 
HETATM    5  C   UNK N   1      39.345  39.712  57.417  0.00  0.00     0.072 A 
HETATM    6  C   UNK N   1      38.803  40.669  58.294  0.00  0.00     0.019 A 
HETATM    7  C   UNK N   1      37.823  40.449  59.417  0.00  0.00     0.189 C 
HETATM    8  S   UNK N   1      37.884  38.698  59.843  0.00  0.00     0.180 S 
HETATM    9  O   UNK N   1      38.954  38.467  60.922  0.00  0.00    -0.222 OA
HETATM   10  O   UNK N   1      36.602  38.241  60.556  0.00  0.00    -0.222 OA
HETATM   11  C   UNK N   1      38.253  37.672  58.451  0.00  0.00     0.072 A 
HETATM   12  C   UNK N   1      37.839  36.334  58.422  0.00  0.00     0.024 A 
HETATM   13  C   UNK N   1      38.070  35.557  57.290  0.00  0.00     0.002 A 
HETATM   14  C   UNK N   1      38.698  36.118  56.181  0.00  0.00     0.001 A 
HETATM   15  C   UNK N   1      39.122  37.449  56.208  0.00  0.00     0.015 A 
HETATM   16  C   UNK N   1      38.934  38.249  57.360  0.00  0.00     0.014 A 
ENDROOT
BRANCH   4  17
HETATM   17  C   UNK N   1      41.214  39.828  55.656  0.00  0.00     0.111 C 
HETATM   18  C   UNK N   1      42.631  40.336  55.957  0.00  0.00     0.057 C 
HETATM   19  C   UNK N   1      43.622  39.575  55.039  0.00  0.00     0.274 C 
HETATM   20  N   UNK N   1      43.032  39.228  53.718  0.00  0.00     0.088 N 
HETATM   21  C   UNK N   1      42.060  40.238  53.269  0.00  0.00     0.274 C 
HETATM   22  C   UNK N   1      40.833  40.232  54.206  0.00  0.00     0.057 C 
BRANCH  20  23
HETATM   23  C   UNK N   1      44.056  38.921  52.703  0.00  0.00     0.272 C 
BRANCH  23  24
HETATM   24  C   UNK N   1      43.777  37.536  52.107  0.00  0.00     0.035 C 
BRANCH  24  25
HETATM   25  C   UNK N   1      43.212  37.601  50.676  0.00  0.00    -0.009 C 
HETATM   26  C   UNK N   1      43.789  38.771  49.876  0.00  0.00     0.031 C 
HETATM   27  C   UNK N   1      43.319  38.583  48.404  0.00  0.00     0.168 C 
HETATM   28  O   UNK N   1      41.984  38.092  48.245  0.00  0.00    -0.391 OA
HETATM   29  C   UNK N   1      41.177  38.418  49.355  0.00  0.00     0.168 C 
HETATM   30  C   UNK N   1      41.663  37.698  50.632  0.00  0.00     0.031 C 
ENDBRANCH  24  25
ENDBRANCH  23  24
ENDBRANCH  20  23
ENDBRANCH   4  17
BRANCH   1  31
HETATM   31  C   UNK N   1      39.047  43.250  58.416  0.00  0.00     0.272 C 
HETATM   32  O   UNK N   1      39.765  43.717  59.290  0.00  0.00    -0.266 OA
HETATM   33  N   UNK N   1      37.912  43.938  58.027  0.00  0.00    -0.343 N 
HETATM   34  C   UNK N   1      37.125  43.595  56.844  0.00  0.00     0.152 C 
HETATM   35  C   UNK N   1      37.425  45.081  58.794  0.00  0.00     0.152 C 
HETATM   36  C   UNK N   1      36.918  44.875  56.019  0.00  0.00     0.187 C 
HETATM   37  O   UNK N   1      36.298  45.878  56.804  0.00  0.00    -0.388 OA
HETATM   38  C   UNK N   1      37.170  46.263  57.854  0.00  0.00     0.187 C 
ENDBRANCH   1  31
TORSDOF 5
ENDMDL
MODEL 5
REMARK VINA RESULT:      -7.8      3.350      6.849
REMARK  5 active torsions:
REMARK  status: ('A' for Active; 'I' for Inactive)
REMARK    1  A    between atoms: C_2  and  C_3 
REMARK       I    between atoms: C_2  and  N_33 
REMARK    2  A    between atoms: N_6  and  C_7 
REMARK    3  A    between atoms: N_10  and  C_11 
REMARK    4  A    between atoms: C_11  and  C_12 
REMARK    5  A    between atoms: C_12  and  C_13 
ROOT
HETATM    1  C   UNK N   1      37.257  35.624  50.962  0.00  0.00     0.126 A 
HETATM    2  N   UNK N   1      38.523  35.769  50.541  0.00  0.00    -0.292 N 
ATOM      3  HN  UNK N   1      39.005  35.139  49.900  1.00  0.00     0.187 HD
HETATM    4  N   UNK N   1      39.051  36.851  51.085  0.00  0.00    -0.285 N 
HETATM    5  C   UNK N   1      38.142  37.421  51.928  0.00  0.00     0.072 A 
HETATM    6  C   UNK N   1      36.957  36.671  51.827  0.00  0.00     0.019 A 
HETATM    7  C   UNK N   1      35.633  36.933  52.498  0.00  0.00     0.189 C 
HETATM    8  S   UNK N   1      35.620  38.666  52.995  0.00  0.00     0.180 S 
HETATM    9  O   UNK N   1      35.052  39.525  51.854  0.00  0.00    -0.222 OA
HETATM   10  O   UNK N   1      34.615  38.926  54.127  0.00  0.00    -0.222 OA
HETATM   11  C   UNK N   1      37.232  39.267  53.406  0.00  0.00     0.072 A 
HETATM   12  C   UNK N   1      37.386  40.346  54.287  0.00  0.00     0.024 A 
HETATM   13  C   UNK N   1      38.662  40.762  54.661  0.00  0.00     0.002 A 
HETATM   14  C   UNK N   1      39.780  40.093  54.173  0.00  0.00     0.001 A 
HETATM   15  C   UNK N   1      39.632  39.023  53.286  0.00  0.00     0.015 A 
HETATM   16  C   UNK N   1      38.350  38.604  52.859  0.00  0.00     0.014 A 
ENDROOT
BRANCH   4  17
HETATM   17  C   UNK N   1      40.380  37.314  50.667  0.00  0.00     0.111 C 
HETATM   18  C   UNK N   1      40.282  38.276  49.476  0.00  0.00     0.057 C 
HETATM   19  C   UNK N   1      41.687  38.883  49.228  0.00  0.00     0.274 C 
HETATM   20  N   UNK N   1      42.789  37.937  49.557  0.00  0.00     0.088 N 
HETATM   21  C   UNK N   1      42.407  36.540  49.298  0.00  0.00     0.274 C 
HETATM   22  C   UNK N   1      41.287  36.117  50.273  0.00  0.00     0.057 C 
BRANCH  20  23
HETATM   23  C   UNK N   1      44.066  38.313  48.926  0.00  0.00     0.272 C 
BRANCH  23  24
HETATM   24  C   UNK N   1      45.192  37.450  49.511  0.00  0.00     0.035 C 
BRANCH  24  25
HETATM   25  C   UNK N   1      46.033  38.194  50.565  0.00  0.00    -0.009 C 
HETATM   26  C   UNK N   1      47.420  37.573  50.744  0.00  0.00     0.031 C 
HETATM   27  C   UNK N   1      48.233  38.544  51.650  0.00  0.00     0.168 C 
HETATM   28  O   UNK N   1      47.491  39.158  52.710  0.00  0.00    -0.391 OA
HETATM   29  C   UNK N   1      46.387  38.368  53.094  0.00  0.00     0.168 C 
HETATM   30  C   UNK N   1      45.348  38.267  51.956  0.00  0.00     0.031 C 
ENDBRANCH  24  25
ENDBRANCH  23  24
ENDBRANCH  20  23
ENDBRANCH   4  17
BRANCH   1  31
HETATM   31  C   UNK N   1      36.404  34.448  50.606  0.00  0.00     0.272 C 
HETATM   32  O   UNK N   1      35.852  34.458  49.515  0.00  0.00    -0.266 OA
HETATM   33  N   UNK N   1      36.123  33.433  51.503  0.00  0.00    -0.343 N 
HETATM   34  C   UNK N   1      36.893  33.195  52.722  0.00  0.00     0.152 C 
HETATM   35  C   UNK N   1      35.013  32.513  51.273  0.00  0.00     0.152 C 
HETATM   36  C   UNK N   1      37.280  31.708  52.761  0.00  0.00     0.187 C 
HETATM   37  O   UNK N   1      36.124  30.891  52.689  0.00  0.00    -0.388 OA
HETATM   38  C   UNK N   1      35.499  31.068  51.429  0.00  0.00     0.187 C 
ENDBRANCH   1  31
TORSDOF 5
ENDMDL
MODEL 6
REMARK VINA RESULT:      -7.7      6.247      9.562
REMARK  5 active torsions:
REMARK  status: ('A' for Active; 'I' for Inactive)
REMARK    1  A    between atoms: C_2  and  C_3 
REMARK       I    between atoms: C_2  and  N_33 
REMARK    2  A    between atoms: N_6  and  C_7 
REMARK    3  A    between atoms: N_10  and  C_11 
REMARK    4  A    between atoms: C_11  and  C_12 
REMARK    5  A    between atoms: C_12  and  C_13 
ROOT
HETATM    1  C   UNK N   1      38.135  34.831  49.614  0.00  0.00     0.126 A 
HETATM    2  N   UNK N   1      38.881  34.251  48.661  0.00  0.00    -0.292 N 
ATOM      3  HN  UNK N   1      38.590  33.459  48.088  1.00  0.00     0.187 HD
HETATM    4  N   UNK N   1      40.050  34.862  48.578  0.00  0.00    -0.285 N 
HETATM    5  C   UNK N   1      40.114  35.840  49.526  0.00  0.00     0.072 A 
HETATM    6  C   UNK N   1      38.868  35.871  50.176  0.00  0.00     0.019 A 
HETATM    7  C   UNK N   1      38.403  36.822  51.249  0.00  0.00     0.189 C 
HETATM    8  S   UNK N   1      39.470  38.273  51.173  0.00  0.00     0.180 S 
HETATM    9  O   UNK N   1      38.871  39.302  50.200  0.00  0.00    -0.222 OA
HETATM   10  O   UNK N   1      39.473  39.048  52.500  0.00  0.00    -0.222 OA
HETATM   11  C   UNK N   1      41.112  37.884  50.645  0.00  0.00     0.072 A 
HETATM   12  C   UNK N   1      42.191  38.699  51.012  0.00  0.00     0.024 A 
HETATM   13  C   UNK N   1      43.488  38.342  50.653  0.00  0.00     0.002 A 
HETATM   14  C   UNK N   1      43.711  37.165  49.944  0.00  0.00     0.001 A 
HETATM   15  C   UNK N   1      42.638  36.354  49.566  0.00  0.00     0.015 A 
HETATM   16  C   UNK N   1      41.307  36.713  49.884  0.00  0.00     0.014 A 
ENDROOT
BRANCH   4  17
HETATM   17  C   UNK N   1      40.991  34.512  47.507  0.00  0.00     0.111 C 
HETATM   18  C   UNK N   1      40.269  33.836  46.334  0.00  0.00     0.057 C 
HETATM   19  C   UNK N   1      41.277  33.690  45.166  0.00  0.00     0.274 C 
HETATM   20  N   UNK N   1      42.673  33.471  45.634  0.00  0.00     0.088 N 
HETATM   21  C   UNK N   1      42.716  32.715  46.895  0.00  0.00     0.274 C 
HETATM   22  C   UNK N   1      42.100  33.560  48.031  0.00  0.00     0.057 C 
BRANCH  20  23
HETATM   23  C   UNK N   1      43.539  32.899  44.587  0.00  0.00     0.272 C 
BRANCH  23  24
HETATM   24  C   UNK N   1      42.957  31.556  44.130  0.00  0.00     0.035 C 
BRANCH  24  25
HETATM   25  C   UNK N   1      42.499  31.568  42.660  0.00  0.00    -0.009 C 
HETATM   26  C   UNK N   1      42.561  32.968  42.044  0.00  0.00     0.031 C 
HETATM   27  C   UNK N   1      42.300  32.800  40.519  0.00  0.00     0.168 C 
HETATM   28  O   UNK N   1      41.316  31.819  40.171  0.00  0.00    -0.391 OA
HETATM   29  C   UNK N   1      40.387  31.625  41.215  0.00  0.00     0.168 C 
HETATM   30  C   UNK N   1      41.064  31.012  42.460  0.00  0.00     0.031 C 
ENDBRANCH  24  25
ENDBRANCH  23  24
ENDBRANCH  20  23
ENDBRANCH   4  17
BRANCH   1  31
HETATM   31  C   UNK N   1      36.790  34.321  50.026  0.00  0.00     0.272 C 
HETATM   32  O   UNK N   1      35.860  34.487  49.250  0.00  0.00    -0.266 OA
HETATM   33  N   UNK N   1      36.545  33.797  51.282  0.00  0.00    -0.343 N 
HETATM   34  C   UNK N   1      37.598  33.341  52.188  0.00  0.00     0.152 C 
HETATM   35  C   UNK N   1      35.182  33.661  51.787  0.00  0.00     0.152 C 
HETATM   36  C   UNK N   1      37.236  31.928  52.670  0.00  0.00     0.187 C 
HETATM   37  O   UNK N   1      35.960  31.924  53.286  0.00  0.00    -0.388 OA
HETATM   38  C   UNK N   1      34.969  32.241  52.322  0.00  0.00     0.187 C 
ENDBRANCH   1  31
TORSDOF 5
ENDMDL
MODEL 7
REMARK VINA RESULT:      -7.3      5.890      8.943
REMARK  5 active torsions:
REMARK  status: ('A' for Active; 'I' for Inactive)
REMARK    1  A    between atoms: C_2  and  C_3 
REMARK       I    between atoms: C_2  and  N_33 
REMARK    2  A    between atoms: N_6  and  C_7 
REMARK    3  A    between atoms: N_10  and  C_11 
REMARK    4  A    between atoms: C_11  and  C_12 
REMARK    5  A    between atoms: C_12  and  C_13 
ROOT
HETATM    1  C   UNK N   1      39.185  35.795  50.475  0.00  0.00     0.126 A 
HETATM    2  N   UNK N   1      39.531  35.027  49.430  0.00  0.00    -0.292 N 
ATOM      3  HN  UNK N   1      38.964  34.274  49.042  1.00  0.00     0.187 HD
HETATM    4  N   UNK N   1      40.717  35.396  48.981  0.00  0.00    -0.285 N 
HETATM    5  C   UNK N   1      41.205  36.398  49.768  0.00  0.00     0.072 A 
HETATM    6  C   UNK N   1      40.209  36.706  50.712  0.00  0.00     0.019 A 
HETATM    7  C   UNK N   1      40.226  37.790  51.758  0.00  0.00     0.189 C 
HETATM    8  S   UNK N   1      41.460  39.002  51.251  0.00  0.00     0.180 S 
HETATM    9  O   UNK N   1      40.800  40.068  50.360  0.00  0.00    -0.222 OA
HETATM   10  O   UNK N   1      41.959  39.838  52.439  0.00  0.00    -0.222 OA
HETATM   11  C   UNK N   1      42.803  38.274  50.360  0.00  0.00     0.072 A 
HETATM   12  C   UNK N   1      44.063  38.886  50.344  0.00  0.00     0.024 A 
HETATM   13  C   UNK N   1      45.132  38.265  49.702  0.00  0.00     0.002 A 
HETATM   14  C   UNK N   1      44.948  37.028  49.091  0.00  0.00     0.001 A 
HETATM   15  C   UNK N   1      43.691  36.418  49.095  0.00  0.00     0.015 A 
HETATM   16  C   UNK N   1      42.580  37.044  49.707  0.00  0.00     0.014 A 
ENDROOT
BRANCH   4  17
HETATM   17  C   UNK N   1      41.254  34.809  47.747  0.00  0.00     0.111 C 
HETATM   18  C   UNK N   1      40.162  34.067  46.966  0.00  0.00     0.057 C 
HETATM   19  C   UNK N   1      40.744  33.661  45.588  0.00  0.00     0.274 C 
HETATM   20  N   UNK N   1      42.200  33.356  45.645  0.00  0.00     0.088 N 
HETATM   21  C   UNK N   1      42.587  32.771  46.939  0.00  0.00     0.274 C 
HETATM   22  C   UNK N   1      42.409  33.820  48.059  0.00  0.00     0.057 C 
BRANCH  20  23
HETATM   23  C   UNK N   1      42.659  32.562  44.492  0.00  0.00     0.272 C 
BRANCH  23  24
HETATM   24  C   UNK N   1      42.447  33.371  43.206  0.00  0.00     0.035 C 
BRANCH  24  25
HETATM   25  C   UNK N   1      41.600  32.624  42.160  0.00  0.00    -0.009 C 
HETATM   26  C   UNK N   1      40.250  33.302  41.915  0.00  0.00     0.031 C 
HETATM   27  C   UNK N   1      39.605  32.590  40.690  0.00  0.00     0.168 C 
HETATM   28  O   UNK N   1      39.808  31.174  40.629  0.00  0.00    -0.391 OA
HETATM   29  C   UNK N   1      40.020  30.625  41.911  0.00  0.00     0.168 C 
HETATM   30  C   UNK N   1      41.339  31.139  42.529  0.00  0.00     0.031 C 
ENDBRANCH  24  25
ENDBRANCH  23  24
ENDBRANCH  20  23
ENDBRANCH   4  17
BRANCH   1  31
HETATM   31  C   UNK N   1      37.940  35.579  51.275  0.00  0.00     0.272 C 
HETATM   32  O   UNK N   1      37.860  34.550  51.931  0.00  0.00    -0.266 OA
HETATM   33  N   UNK N   1      36.847  36.422  51.195  0.00  0.00    -0.343 N 
HETATM   34  C   UNK N   1      36.908  37.775  50.643  0.00  0.00     0.152 C 
HETATM   35  C   UNK N   1      35.534  36.001  51.675  0.00  0.00     0.152 C 
HETATM   36  C   UNK N   1      36.262  38.734  51.655  0.00  0.00     0.187 C 
HETATM   37  O   UNK N   1      34.934  38.332  51.943  0.00  0.00    -0.388 OA
HETATM   38  C   UNK N   1      34.953  37.075  52.599  0.00  0.00     0.187 C 
ENDBRANCH   1  31
TORSDOF 5
ENDMDL
MODEL 8
REMARK VINA RESULT:      -7.3      2.683      8.128
REMARK  5 active torsions:
REMARK  status: ('A' for Active; 'I' for Inactive)
REMARK    1  A    between atoms: C_2  and  C_3 
REMARK       I    between atoms: C_2  and  N_33 
REMARK    2  A    between atoms: N_6  and  C_7 
REMARK    3  A    between atoms: N_10  and  C_11 
REMARK    4  A    between atoms: C_11  and  C_12 
REMARK    5  A    between atoms: C_12  and  C_13 
ROOT
HETATM    1  C   UNK N   1      41.545  38.916  51.039  0.00  0.00     0.126 A 
HETATM    2  N   UNK N   1      41.705  39.223  52.336  0.00  0.00    -0.292 N 
ATOM      3  HN  UNK N   1      42.568  39.566  52.756  1.00  0.00     0.187 HD
HETATM    4  N   UNK N   1      40.573  39.012  52.985  0.00  0.00    -0.285 N 
HETATM    5  C   UNK N   1      39.647  38.506  52.121  0.00  0.00     0.072 A 
HETATM    6  C   UNK N   1      40.239  38.480  50.846  0.00  0.00     0.019 A 
HETATM    7  C   UNK N   1      39.608  38.078  49.538  0.00  0.00     0.189 C 
HETATM    8  S   UNK N   1      37.821  38.183  49.753  0.00  0.00     0.180 S 
HETATM    9  O   UNK N   1      37.340  39.597  49.388  0.00  0.00    -0.222 OA
HETATM   10  O   UNK N   1      37.072  37.313  48.731  0.00  0.00    -0.222 OA
HETATM   11  C   UNK N   1      37.313  37.823  51.408  0.00  0.00     0.072 A 
HETATM   12  C   UNK N   1      36.025  37.335  51.667  0.00  0.00     0.024 A 
HETATM   13  C   UNK N   1      35.661  36.984  52.966  0.00  0.00     0.002 A 
HETATM   14  C   UNK N   1      36.586  37.103  54.000  0.00  0.00     0.001 A 
HETATM   15  C   UNK N   1      37.868  37.599  53.748  0.00  0.00     0.015 A 
HETATM   16  C   UNK N   1      38.251  37.998  52.446  0.00  0.00     0.014 A 
ENDROOT
BRANCH   4  17
HETATM   17  C   UNK N   1      40.443  39.415  54.390  0.00  0.00     0.111 C 
HETATM   18  C   UNK N   1      39.677  40.738  54.519  0.00  0.00     0.057 C 
HETATM   19  C   UNK N   1      39.395  40.989  56.023  0.00  0.00     0.274 C 
HETATM   20  N   UNK N   1      40.470  40.460  56.906  0.00  0.00     0.088 N 
HETATM   21  C   UNK N   1      41.792  40.533  56.264  0.00  0.00     0.274 C 
HETATM   22  C   UNK N   1      41.837  39.574  55.055  0.00  0.00     0.057 C 
BRANCH  20  23
HETATM   23  C   UNK N   1      40.447  41.063  58.250  0.00  0.00     0.272 C 
BRANCH  23  24
HETATM   24  C   UNK N   1      39.128  41.822  58.441  0.00  0.00     0.035 C 
BRANCH  24  25
HETATM   25  C   UNK N   1      39.334  43.301  58.816  0.00  0.00    -0.009 C 
HETATM   26  C   UNK N   1      39.623  43.487  60.307  0.00  0.00     0.031 C 
HETATM   27  C   UNK N   1      40.035  44.975  60.503  0.00  0.00     0.168 C 
HETATM   28  O   UNK N   1      39.309  45.920  59.709  0.00  0.00    -0.391 OA
HETATM   29  C   UNK N   1      38.029  45.434  59.366  0.00  0.00     0.168 C 
HETATM   30  C   UNK N   1      38.128  44.203  58.438  0.00  0.00     0.031 C 
ENDBRANCH  24  25
ENDBRANCH  23  24
ENDBRANCH  20  23
ENDBRANCH   4  17
BRANCH   1  31
HETATM   31  C   UNK N   1      42.662  38.954  50.044  0.00  0.00     0.272 C 
HETATM   32  O   UNK N   1      42.482  39.589  49.015  0.00  0.00    -0.266 OA
HETATM   33  N   UNK N   1      43.814  38.203  50.189  0.00  0.00    -0.343 N 
HETATM   34  C   UNK N   1      44.236  37.605  51.455  0.00  0.00     0.152 C 
HETATM   35  C   UNK N   1      44.703  37.963  49.056  0.00  0.00     0.152 C 
HETATM   36  C   UNK N   1      45.702  37.993  51.702  0.00  0.00     0.187 C 
HETATM   37  O   UNK N   1      46.515  37.581  50.617  0.00  0.00    -0.388 OA
HETATM   38  C   UNK N   1      46.145  38.297  49.451  0.00  0.00     0.187 C 
ENDBRANCH   1  31
TORSDOF 5
ENDMDL
MODEL 9
REMARK VINA RESULT:      -7.3      2.816      8.200
REMARK  5 active torsions:
REMARK  status: ('A' for Active; 'I' for Inactive)
REMARK    1  A    between atoms: C_2  and  C_3 
REMARK       I    between atoms: C_2  and  N_33 
REMARK    2  A    between atoms: N_6  and  C_7 
REMARK    3  A    between atoms: N_10  and  C_11 
REMARK    4  A    between atoms: C_11  and  C_12 
REMARK    5  A    between atoms: C_12  and  C_13 
ROOT
HETATM    1  C   UNK N   1      40.133  38.836  51.641  0.00  0.00     0.126 A 
HETATM    2  N   UNK N   1      39.762  39.447  52.777  0.00  0.00    -0.292 N 
ATOM      3  HN  UNK N   1      38.807  39.715  53.016  1.00  0.00     0.187 HD
HETATM    4  N   UNK N   1      40.822  39.650  53.539  0.00  0.00    -0.285 N 
HETATM    5  C   UNK N   1      41.937  39.214  52.885  0.00  0.00     0.072 A 
HETATM    6  C   UNK N   1      41.509  38.639  51.675  0.00  0.00     0.019 A 
HETATM    7  C   UNK N   1      42.345  37.946  50.630  0.00  0.00     0.189 C 
HETATM    8  S   UNK N   1      43.888  37.454  51.421  0.00  0.00     0.180 S 
HETATM    9  O   UNK N   1      43.733  36.049  52.025  0.00  0.00    -0.222 OA
HETATM   10  O   UNK N   1      45.012  37.243  50.395  0.00  0.00    -0.222 OA
HETATM   11  C   UNK N   1      44.381  38.568  52.703  0.00  0.00     0.072 A 
HETATM   12  C   UNK N   1      45.730  38.690  53.062  0.00  0.00     0.024 A 
HETATM   13  C   UNK N   1      46.114  39.625  54.021  0.00  0.00     0.002 A 
HETATM   14  C   UNK N   1      45.158  40.448  54.608  0.00  0.00     0.001 A 
HETATM   15  C   UNK N   1      43.810  40.323  54.262  0.00  0.00     0.015 A 
HETATM   16  C   UNK N   1      43.387  39.356  53.319  0.00  0.00     0.014 A 
ENDROOT
BRANCH   4  17
HETATM   17  C   UNK N   1      40.662  40.169  54.903  0.00  0.00     0.111 C 
HETATM   18  C   UNK N   1      40.764  39.042  55.940  0.00  0.00     0.057 C 
HETATM   19  C   UNK N   1      40.799  39.685  57.350  0.00  0.00     0.274 C 
HETATM   20  N   UNK N   1      40.000  40.939  57.431  0.00  0.00     0.088 N 
HETATM   21  C   UNK N   1      38.829  40.901  56.542  0.00  0.00     0.274 C 
HETATM   22  C   UNK N   1      39.294  40.883  55.069  0.00  0.00     0.057 C 
BRANCH  20  23
HETATM   23  C   UNK N   1      39.661  41.306  58.817  0.00  0.00     0.272 C 
BRANCH  23  24
HETATM   24  C   UNK N   1      40.167  42.726  59.101  0.00  0.00     0.035 C 
BRANCH  24  25
HETATM   25  C   UNK N   1      39.032  43.712  59.434  0.00  0.00    -0.009 C 
HETATM   26  C   UNK N   1      38.134  43.993  58.226  0.00  0.00     0.031 C 
HETATM   27  C   UNK N   1      36.915  44.806  58.752  0.00  0.00     0.168 C 
HETATM   28  O   UNK N   1      37.216  45.774  59.764  0.00  0.00    -0.391 OA
HETATM   29  C   UNK N   1      38.553  46.215  59.677  0.00  0.00     0.168 C 
HETATM   30  C   UNK N   1      39.542  45.070  59.987  0.00  0.00     0.031 C 
ENDBRANCH  24  25
ENDBRANCH  23  24
ENDBRANCH  20  23
ENDBRANCH   4  17
BRANCH   1  31
HETATM   31  C   UNK N   1      39.186  38.546  50.520  0.00  0.00     0.272 C 
HETATM   32  O   UNK N   1      39.191  39.307  49.563  0.00  0.00    -0.266 OA
HETATM   33  N   UNK N   1      38.237  37.543  50.588  0.00  0.00    -0.343 N 
HETATM   34  C   UNK N   1      38.287  36.445  51.552  0.00  0.00     0.152 C 
HETATM   35  C   UNK N   1      37.101  37.519  49.670  0.00  0.00     0.152 C 
HETATM   36  C   UNK N   1      38.116  35.125  50.785  0.00  0.00     0.187 C 
HETATM   37  O   UNK N   1      36.907  35.133  50.045  0.00  0.00    -0.388 OA
HETATM   38  C   UNK N   1      36.977  36.130  49.038  0.00  0.00     0.187 C 
ENDBRANCH   1  31
TORSDOF 5
ENDMDL
