MODEL 1
REMARK VINA RESULT:      -7.5      0.000      0.000
REMARK  8 active torsions:
REMARK  status: ('A' for Active; 'I' for Inactive)
REMARK    1  A    between atoms: O_2  and  C_3 
REMARK    2  A    between atoms: C_3  and  C_4 
REMARK    3  A    between atoms: C_4  and  N_5 
REMARK    4  A    between atoms: N_5  and  C_7 
REMARK    5  A    between atoms: C_7  and  C_8 
REMARK    6  A    between atoms: C_8  and  N_9 
REMARK    7  A    between atoms: C_13  and  N_14 
REMARK    8  A    between atoms: C_17  and  C_18 
REMARK       I    between atoms: C_18  and  N_20 
ROOT
HETATM    1  N   UNK N   1      40.900  38.309  51.456  0.00  0.00    -0.284 N 
HETATM    2  N   UNK N   1      41.080  39.302  52.318  0.00  0.00    -0.292 N 
ATOM      3  HN  UNK N   1      41.943  39.835  52.424  1.00  0.00     0.187 HD
HETATM    4  C   UNK N   1      39.960  39.503  53.031  0.00  0.00     0.126 A 
HETATM    5  C   UNK N   1      38.999  38.605  52.598  0.00  0.00     0.019 A 
HETATM    6  C   UNK N   1      39.622  37.826  51.608  0.00  0.00     0.072 A 
HETATM    7  C   UNK N   1      38.889  36.740  50.833  0.00  0.00     0.014 A 
HETATM    8  C   UNK N   1      39.536  35.637  50.249  0.00  0.00     0.015 A 
HETATM    9  C   UNK N   1      38.818  34.662  49.551  0.00  0.00     0.001 A 
HETATM   10  C   UNK N   1      37.435  34.761  49.428  0.00  0.00     0.002 A 
HETATM   11  C   UNK N   1      36.760  35.828  50.020  0.00  0.00     0.024 A 
HETATM   12  C   UNK N   1      37.477  36.802  50.724  0.00  0.00     0.072 A 
HETATM   13  S   UNK N   1      36.637  38.125  51.551  0.00  0.00     0.180 S 
HETATM   14  O   UNK N   1      35.174  37.770  51.855  0.00  0.00    -0.222 OA
HETATM   15  O   UNK N   1      36.528  39.345  50.623  0.00  0.00    -0.222 OA
HETATM   16  C   UNK N   1      37.562  38.513  53.039  0.00  0.00     0.189 C 
ENDROOT
BRANCH   1  17
HETATM   17  C   UNK N   1      41.953  38.080  50.444  0.00  0.00     0.137 C 
HETATM   18  C   UNK N   1      42.490  39.348  49.758  0.00  0.00     0.031 C 
HETATM   19  C   UNK N   1      43.450  38.933  48.635  0.00  0.00     0.032 C 
HETATM   20  C   UNK N   1      44.551  37.993  49.178  0.00  0.00     0.272 C 
HETATM   21  N   UNK N   1      43.992  36.779  49.828  0.00  0.00     0.092 N 
HETATM   22  C   UNK N   1      43.063  37.119  50.920  0.00  0.00     0.299 C 
BRANCH  21  23
HETATM   23  C   UNK N   1      43.456  35.777  48.883  0.00  0.00     0.302 C 
BRANCH  23  24
HETATM   24  C   UNK N   1      42.845  34.612  49.680  0.00  0.00     0.302 C 
BRANCH  24  25
HETATM   25  N   UNK N   1      42.442  33.464  48.839  0.00  0.00     0.087 N 
HETATM   26  C   UNK N   1      41.860  33.868  47.545  0.00  0.00     0.310 C 
BRANCH  25  27
HETATM   27  C   UNK N   1      43.517  32.457  48.695  0.00  0.00     0.298 C 
BRANCH  27  28
HETATM   28  C   UNK N   1      44.086  32.474  47.279  0.00  0.00     0.197 C 
BRANCH  28  29
HETATM   29  O   UNK N   1      43.868  31.234  46.648  0.00  0.00    -0.394 OA
HETATM   30  C   UNK N   1      43.842  31.424  45.252  0.00  0.00     0.201 C 
ENDBRANCH  28  29
ENDBRANCH  27  28
ENDBRANCH  25  27
ENDBRANCH  24  25
ENDBRANCH  23  24
ENDBRANCH  21  23
ENDBRANCH   1  17
BRANCH   4  31
HETATM   31  C   UNK N   1      39.845  40.482  54.163  0.00  0.00     0.272 C 
HETATM   32  O   UNK N   1      39.025  41.382  54.048  0.00  0.00    -0.266 OA
HETATM   33  N   UNK N   1      40.554  40.370  55.346  0.00  0.00    -0.343 N 
HETATM   34  C   UNK N   1      40.074  41.097  56.524  0.00  0.00     0.152 C 
HETATM   35  C   UNK N   1      41.525  39.300  55.573  0.00  0.00     0.152 C 
HETATM   36  C   UNK N   1      41.205  41.357  57.521  0.00  0.00     0.187 C 
HETATM   37  O   UNK N   1      41.886  40.153  57.812  0.00  0.00    -0.388 OA
HETATM   38  C   UNK N   1      42.544  39.723  56.639  0.00  0.00     0.187 C 
ENDBRANCH   4  31
TORSDOF 8
ENDMDL
MODEL 2
REMARK VINA RESULT:      -7.5      7.408     10.426
REMARK  8 active torsions:
REMARK  status: ('A' for Active; 'I' for Inactive)
REMARK    1  A    between atoms: O_2  and  C_3 
REMARK    2  A    between atoms: C_3  and  C_4 
REMARK    3  A    between atoms: C_4  and  N_5 
REMARK    4  A    between atoms: N_5  and  C_7 
REMARK    5  A    between atoms: C_7  and  C_8 
REMARK    6  A    between atoms: C_8  and  N_9 
REMARK    7  A    between atoms: C_13  and  N_14 
REMARK    8  A    between atoms: C_17  and  C_18 
REMARK       I    between atoms: C_18  and  N_20 
ROOT
HETATM    1  N   UNK N   1      38.851  33.358  45.158  0.00  0.00    -0.284 N 
HETATM    2  N   UNK N   1      39.771  33.479  46.107  0.00  0.00    -0.292 N 
ATOM      3  HN  UNK N   1      39.641  33.217  47.084  1.00  0.00     0.187 HD
HETATM    4  C   UNK N   1      40.899  33.996  45.593  0.00  0.00     0.126 A 
HETATM    5  C   UNK N   1      40.706  34.207  44.239  0.00  0.00     0.019 A 
HETATM    6  C   UNK N   1      39.381  33.820  43.976  0.00  0.00     0.072 A 
HETATM    7  C   UNK N   1      38.777  33.850  42.579  0.00  0.00     0.014 A 
HETATM    8  C   UNK N   1      37.398  33.980  42.336  0.00  0.00     0.015 A 
HETATM    9  C   UNK N   1      36.890  34.008  41.034  0.00  0.00     0.001 A 
HETATM   10  C   UNK N   1      37.750  33.915  39.943  0.00  0.00     0.002 A 
HETATM   11  C   UNK N   1      39.125  33.813  40.150  0.00  0.00     0.024 A 
HETATM   12  C   UNK N   1      39.635  33.791  41.453  0.00  0.00     0.072 A 
HETATM   13  S   UNK N   1      41.383  33.741  41.742  0.00  0.00     0.180 S 
HETATM   14  O   UNK N   1      42.176  34.262  40.535  0.00  0.00    -0.222 OA
HETATM   15  O   UNK N   1      41.855  32.286  41.884  0.00  0.00    -0.222 OA
HETATM   16  C   UNK N   1      41.717  34.687  43.230  0.00  0.00     0.189 C 
ENDROOT
BRANCH   1  17
HETATM   17  C   UNK N   1      37.617  32.616  45.488  0.00  0.00     0.137 C 
HETATM   18  C   UNK N   1      36.324  33.451  45.468  0.00  0.00     0.031 C 
HETATM   19  C   UNK N   1      35.168  32.583  45.982  0.00  0.00     0.032 C 
HETATM   20  C   UNK N   1      35.080  31.262  45.183  0.00  0.00     0.272 C 
HETATM   21  N   UNK N   1      36.345  30.484  45.232  0.00  0.00     0.092 N 
HETATM   22  C   UNK N   1      37.493  31.269  44.744  0.00  0.00     0.299 C 
BRANCH  21  23
HETATM   23  C   UNK N   1      36.593  29.809  46.523  0.00  0.00     0.302 C 
BRANCH  23  24
HETATM   24  C   UNK N   1      35.604  28.641  46.678  0.00  0.00     0.302 C 
BRANCH  24  25
HETATM   25  N   UNK N   1      36.237  27.309  46.581  0.00  0.00     0.087 N 
HETATM   26  C   UNK N   1      35.444  26.345  45.794  0.00  0.00     0.310 C 
BRANCH  25  27
HETATM   27  C   UNK N   1      37.650  27.379  46.146  0.00  0.00     0.298 C 
BRANCH  27  28
HETATM   28  C   UNK N   1      37.797  26.888  44.708  0.00  0.00     0.197 C 
BRANCH  28  29
HETATM   29  O   UNK N   1      38.287  27.920  43.884  0.00  0.00    -0.394 OA
HETATM   30  C   UNK N   1      37.502  27.992  42.716  0.00  0.00     0.201 C 
ENDBRANCH  28  29
ENDBRANCH  27  28
ENDBRANCH  25  27
ENDBRANCH  24  25
ENDBRANCH  23  24
ENDBRANCH  21  23
ENDBRANCH   1  17
BRANCH   4  31
HETATM   31  C   UNK N   1      42.107  34.360  46.407  0.00  0.00     0.272 C 
HETATM   32  O   UNK N   1      42.002  35.305  47.177  0.00  0.00    -0.266 OA
HETATM   33  N   UNK N   1      43.288  33.641  46.387  0.00  0.00    -0.343 N 
HETATM   34  C   UNK N   1      44.230  33.805  47.499  0.00  0.00     0.152 C 
HETATM   35  C   UNK N   1      43.476  32.477  45.521  0.00  0.00     0.152 C 
HETATM   36  C   UNK N   1      45.657  33.447  47.079  0.00  0.00     0.187 C 
HETATM   37  O   UNK N   1      45.683  32.171  46.473  0.00  0.00    -0.388 OA
HETATM   38  C   UNK N   1      44.969  32.246  45.257  0.00  0.00     0.187 C 
ENDBRANCH   4  31
TORSDOF 8
ENDMDL
MODEL 3
REMARK VINA RESULT:      -7.5      2.598      7.958
REMARK  8 active torsions:
REMARK  status: ('A' for Active; 'I' for Inactive)
REMARK    1  A    between atoms: O_2  and  C_3 
REMARK    2  A    between atoms: C_3  and  C_4 
REMARK    3  A    between atoms: C_4  and  N_5 
REMARK    4  A    between atoms: N_5  and  C_7 
REMARK    5  A    between atoms: C_7  and  C_8 
REMARK    6  A    between atoms: C_8  and  N_9 
REMARK    7  A    between atoms: C_13  and  N_14 
REMARK    8  A    between atoms: C_17  and  C_18 
REMARK       I    between atoms: C_18  and  N_20 
ROOT
HETATM    1  N   UNK N   1      40.951  36.335  49.757  0.00  0.00    -0.284 N 
HETATM    2  N   UNK N   1      41.581  35.629  48.827  0.00  0.00    -0.292 N 
ATOM      3  HN  UNK N   1      42.581  35.681  48.630  1.00  0.00     0.187 HD
HETATM    4  C   UNK N   1      40.712  34.835  48.182  0.00  0.00     0.126 A 
HETATM    5  C   UNK N   1      39.456  35.023  48.732  0.00  0.00     0.019 A 
HETATM    6  C   UNK N   1      39.616  36.008  49.723  0.00  0.00     0.072 A 
HETATM    7  C   UNK N   1      38.470  36.477  50.609  0.00  0.00     0.014 A 
HETATM    8  C   UNK N   1      38.432  37.746  51.213  0.00  0.00     0.015 A 
HETATM    9  C   UNK N   1      37.355  38.134  52.016  0.00  0.00     0.001 A 
HETATM   10  C   UNK N   1      36.287  37.265  52.227  0.00  0.00     0.002 A 
HETATM   11  C   UNK N   1      36.283  36.010  51.619  0.00  0.00     0.024 A 
HETATM   12  C   UNK N   1      37.358  35.623  50.811  0.00  0.00     0.072 A 
HETATM   13  S   UNK N   1      37.342  34.066  49.965  0.00  0.00     0.180 S 
HETATM   14  O   UNK N   1      35.914  33.530  49.784  0.00  0.00    -0.222 OA
HETATM   15  O   UNK N   1      38.025  32.990  50.823  0.00  0.00    -0.222 OA
HETATM   16  C   UNK N   1      38.185  34.288  48.397  0.00  0.00     0.189 C 
ENDROOT
BRANCH   1  17
HETATM   17  C   UNK N   1      41.776  37.111  50.707  0.00  0.00     0.137 C 
HETATM   18  C   UNK N   1      43.150  36.499  51.033  0.00  0.00     0.031 C 
HETATM   19  C   UNK N   1      43.810  37.331  52.141  0.00  0.00     0.032 C 
HETATM   20  C   UNK N   1      43.860  38.825  51.746  0.00  0.00     0.272 C 
HETATM   21  N   UNK N   1      42.514  39.378  51.444  0.00  0.00     0.092 N 
HETATM   22  C   UNK N   1      41.833  38.618  50.381  0.00  0.00     0.299 C 
BRANCH  21  23
HETATM   23  C   UNK N   1      41.673  39.613  52.636  0.00  0.00     0.302 C 
BRANCH  23  24
HETATM   24  C   UNK N   1      42.396  40.595  53.575  0.00  0.00     0.302 C 
BRANCH  24  25
HETATM   25  N   UNK N   1      42.383  40.180  54.994  0.00  0.00     0.087 N 
HETATM   26  C   UNK N   1      41.602  38.952  55.232  0.00  0.00     0.310 C 
BRANCH  25  27
HETATM   27  C   UNK N   1      43.740  40.120  55.582  0.00  0.00     0.298 C 
BRANCH  27  28
HETATM   28  C   UNK N   1      44.791  40.540  54.558  0.00  0.00     0.197 C 
BRANCH  28  29
HETATM   29  O   UNK N   1      46.086  40.371  55.087  0.00  0.00    -0.394 OA
HETATM   30  C   UNK N   1      46.903  39.752  54.120  0.00  0.00     0.201 C 
ENDBRANCH  28  29
ENDBRANCH  27  28
ENDBRANCH  25  27
ENDBRANCH  24  25
ENDBRANCH  23  24
ENDBRANCH  21  23
ENDBRANCH   1  17
BRANCH   4  31
HETATM   31  C   UNK N   1      41.068  33.976  47.003  0.00  0.00     0.272 C 
HETATM   32  O   UNK N   1      40.312  33.998  46.042  0.00  0.00    -0.266 OA
HETATM   33  N   UNK N   1      42.233  33.234  46.921  0.00  0.00    -0.343 N 
HETATM   34  C   UNK N   1      42.689  32.787  45.602  0.00  0.00     0.152 C 
HETATM   35  C   UNK N   1      43.204  33.187  48.014  0.00  0.00     0.152 C 
HETATM   36  C   UNK N   1      43.587  31.553  45.710  0.00  0.00     0.187 C 
HETATM   37  O   UNK N   1      44.624  31.782  46.642  0.00  0.00    -0.388 OA
HETATM   38  C   UNK N   1      44.044  31.907  47.924  0.00  0.00     0.187 C 
ENDBRANCH   4  31
TORSDOF 8
ENDMDL
MODEL 4
REMARK VINA RESULT:      -7.4      3.697      6.529
REMARK  8 active torsions:
REMARK  status: ('A' for Active; 'I' for Inactive)
REMARK    1  A    between atoms: O_2  and  C_3 
REMARK    2  A    between atoms: C_3  and  C_4 
REMARK    3  A    between atoms: C_4  and  N_5 
REMARK    4  A    between atoms: N_5  and  C_7 
REMARK    5  A    between atoms: C_7  and  C_8 
REMARK    6  A    between atoms: C_8  and  N_9 
REMARK    7  A    between atoms: C_13  and  N_14 
REMARK    8  A    between atoms: C_17  and  C_18 
REMARK       I    between atoms: C_18  and  N_20 
ROOT
HETATM    1  N   UNK N   1      39.762  39.922  54.261  0.00  0.00    -0.284 N 
HETATM    2  N   UNK N   1      38.508  40.163  54.623  0.00  0.00    -0.292 N 
ATOM      3  HN  UNK N   1      37.685  39.932  54.068  1.00  0.00     0.187 HD
HETATM    4  C   UNK N   1      38.481  40.754  55.828  0.00  0.00     0.126 A 
HETATM    5  C   UNK N   1      39.783  40.889  56.278  0.00  0.00     0.019 A 
HETATM    6  C   UNK N   1      40.597  40.379  55.253  0.00  0.00     0.072 A 
HETATM    7  C   UNK N   1      42.114  40.297  55.370  0.00  0.00     0.014 A 
HETATM    8  C   UNK N   1      42.975  40.297  54.258  0.00  0.00     0.015 A 
HETATM    9  C   UNK N   1      44.361  40.226  54.416  0.00  0.00     0.001 A 
HETATM   10  C   UNK N   1      44.921  40.162  55.689  0.00  0.00     0.002 A 
HETATM   11  C   UNK N   1      44.096  40.188  56.812  0.00  0.00     0.024 A 
HETATM   12  C   UNK N   1      42.707  40.265  56.656  0.00  0.00     0.072 A 
HETATM   13  S   UNK N   1      41.641  40.379  58.066  0.00  0.00     0.180 S 
HETATM   14  O   UNK N   1      42.381  40.915  59.300  0.00  0.00    -0.222 OA
HETATM   15  O   UNK N   1      41.185  38.977  58.500  0.00  0.00    -0.222 OA
HETATM   16  C   UNK N   1      40.245  41.412  57.613  0.00  0.00     0.189 C 
ENDROOT
BRANCH   1  17
HETATM   17  C   UNK N   1      39.983  39.091  53.059  0.00  0.00     0.137 C 
HETATM   18  C   UNK N   1      38.745  38.328  52.554  0.00  0.00     0.031 C 
HETATM   19  C   UNK N   1      39.172  37.399  51.409  0.00  0.00     0.032 C 
HETATM   20  C   UNK N   1      39.918  38.192  50.311  0.00  0.00     0.272 C 
HETATM   21  N   UNK N   1      41.107  38.909  50.838  0.00  0.00     0.092 N 
HETATM   22  C   UNK N   1      40.755  39.822  51.941  0.00  0.00     0.299 C 
BRANCH  21  23
HETATM   23  C   UNK N   1      42.260  38.034  51.137  0.00  0.00     0.302 C 
BRANCH  23  24
HETATM   24  C   UNK N   1      43.553  38.733  50.683  0.00  0.00     0.302 C 
BRANCH  24  25
HETATM   25  N   UNK N   1      43.948  38.407  49.296  0.00  0.00     0.087 N 
HETATM   26  C   UNK N   1      43.629  39.479  48.334  0.00  0.00     0.310 C 
BRANCH  25  27
HETATM   27  C   UNK N   1      45.351  37.946  49.196  0.00  0.00     0.298 C 
BRANCH  27  28
HETATM   28  C   UNK N   1      45.977  37.822  50.583  0.00  0.00     0.197 C 
BRANCH  28  29
HETATM   29  O   UNK N   1      47.294  37.330  50.484  0.00  0.00    -0.394 OA
HETATM   30  C   UNK N   1      48.047  38.186  49.657  0.00  0.00     0.201 C 
ENDBRANCH  28  29
ENDBRANCH  27  28
ENDBRANCH  25  27
ENDBRANCH  24  25
ENDBRANCH  23  24
ENDBRANCH  21  23
ENDBRANCH   1  17
BRANCH   4  31
HETATM   31  C   UNK N   1      37.232  41.255  56.494  0.00  0.00     0.272 C 
HETATM   32  O   UNK N   1      36.496  40.423  57.006  0.00  0.00    -0.266 OA
HETATM   33  N   UNK N   1      36.919  42.596  56.623  0.00  0.00    -0.343 N 
HETATM   34  C   UNK N   1      35.934  42.993  57.634  0.00  0.00     0.152 C 
HETATM   35  C   UNK N   1      37.769  43.650  56.070  0.00  0.00     0.152 C 
HETATM   36  C   UNK N   1      35.279  44.330  57.280  0.00  0.00     0.187 C 
HETATM   37  O   UNK N   1      36.268  45.303  57.010  0.00  0.00    -0.388 OA
HETATM   38  C   UNK N   1      36.950  44.925  55.833  0.00  0.00     0.187 C 
ENDBRANCH   4  31
TORSDOF 8
ENDMDL
MODEL 5
REMARK VINA RESULT:      -7.4      2.854      5.303
REMARK  8 active torsions:
REMARK  status: ('A' for Active; 'I' for Inactive)
REMARK    1  A    between atoms: O_2  and  C_3 
REMARK    2  A    between atoms: C_3  and  C_4 
REMARK    3  A    between atoms: C_4  and  N_5 
REMARK    4  A    between atoms: N_5  and  C_7 
REMARK    5  A    between atoms: C_7  and  C_8 
REMARK    6  A    between atoms: C_8  and  N_9 
REMARK    7  A    between atoms: C_13  and  N_14 
REMARK    8  A    between atoms: C_17  and  C_18 
REMARK       I    between atoms: C_18  and  N_20 
ROOT
HETATM    1  N   UNK N   1      42.441  37.857  51.049  0.00  0.00    -0.284 N 
HETATM    2  N   UNK N   1      41.438  38.399  51.730  0.00  0.00    -0.292 N 
ATOM      3  HN  UNK N   1      40.455  38.148  51.622  1.00  0.00     0.187 HD
HETATM    4  C   UNK N   1      41.906  39.326  52.581  0.00  0.00     0.126 A 
HETATM    5  C   UNK N   1      43.284  39.377  52.458  0.00  0.00     0.019 A 
HETATM    6  C   UNK N   1      43.613  38.450  51.454  0.00  0.00     0.072 A 
HETATM    7  C   UNK N   1      45.050  38.160  51.040  0.00  0.00     0.014 A 
HETATM    8  C   UNK N   1      45.405  37.679  49.768  0.00  0.00     0.015 A 
HETATM    9  C   UNK N   1      46.739  37.432  49.433  0.00  0.00     0.001 A 
HETATM   10  C   UNK N   1      47.751  37.669  50.360  0.00  0.00     0.002 A 
HETATM   11  C   UNK N   1      47.434  38.173  51.620  0.00  0.00     0.024 A 
HETATM   12  C   UNK N   1      46.099  38.426  51.955  0.00  0.00     0.072 A 
HETATM   13  S   UNK N   1      45.676  39.139  53.521  0.00  0.00     0.180 S 
HETATM   14  O   UNK N   1      46.859  39.897  54.141  0.00  0.00    -0.222 OA
HETATM   15  O   UNK N   1      45.380  38.032  54.545  0.00  0.00    -0.222 OA
HETATM   16  C   UNK N   1      44.250  40.199  53.271  0.00  0.00     0.189 C 
ENDROOT
BRANCH   1  17
HETATM   17  C   UNK N   1      42.144  36.673  50.215  0.00  0.00     0.137 C 
HETATM   18  C   UNK N   1      40.725  36.099  50.373  0.00  0.00     0.031 C 
HETATM   19  C   UNK N   1      40.628  34.796  49.569  0.00  0.00     0.032 C 
HETATM   20  C   UNK N   1      41.057  35.025  48.102  0.00  0.00     0.272 C 
HETATM   21  N   UNK N   1      42.433  35.575  47.993  0.00  0.00     0.092 N 
HETATM   22  C   UNK N   1      42.584  36.834  48.744  0.00  0.00     0.299 C 
BRANCH  21  23
HETATM   23  C   UNK N   1      43.503  34.592  48.262  0.00  0.00     0.302 C 
BRANCH  23  24
HETATM   24  C   UNK N   1      42.982  33.182  47.936  0.00  0.00     0.302 C 
BRANCH  24  25
HETATM   25  N   UNK N   1      43.688  32.533  46.810  0.00  0.00     0.087 N 
HETATM   26  C   UNK N   1      43.655  33.328  45.568  0.00  0.00     0.310 C 
BRANCH  25  27
HETATM   27  C   UNK N   1      45.054  32.091  47.172  0.00  0.00     0.298 C 
BRANCH  27  28
HETATM   28  C   UNK N   1      46.088  32.722  46.244  0.00  0.00     0.197 C 
BRANCH  28  29
HETATM   29  O   UNK N   1      47.372  32.651  46.820  0.00  0.00    -0.394 OA
HETATM   30  C   UNK N   1      47.311  31.868  47.990  0.00  0.00     0.201 C 
ENDBRANCH  28  29
ENDBRANCH  27  28
ENDBRANCH  25  27
ENDBRANCH  24  25
ENDBRANCH  23  24
ENDBRANCH  21  23
ENDBRANCH   1  17
BRANCH   4  31
HETATM   31  C   UNK N   1      41.036  40.205  53.432  0.00  0.00     0.272 C 
HETATM   32  O   UNK N   1      40.419  41.099  52.870  0.00  0.00    -0.266 OA
HETATM   33  N   UNK N   1      40.840  40.006  54.787  0.00  0.00    -0.343 N 
HETATM   34  C   UNK N   1      39.675  40.624  55.427  0.00  0.00     0.152 C 
HETATM   35  C   UNK N   1      41.514  38.935  55.521  0.00  0.00     0.152 C 
HETATM   36  C   UNK N   1      39.899  40.816  56.928  0.00  0.00     0.187 C 
HETATM   37  O   UNK N   1      40.316  39.603  57.519  0.00  0.00    -0.388 OA
HETATM   38  C   UNK N   1      41.596  39.282  57.013  0.00  0.00     0.187 C 
ENDBRANCH   4  31
TORSDOF 8
ENDMDL
MODEL 6
REMARK VINA RESULT:      -7.3      3.397      6.271
REMARK  8 active torsions:
REMARK  status: ('A' for Active; 'I' for Inactive)
REMARK    1  A    between atoms: O_2  and  C_3 
REMARK    2  A    between atoms: C_3  and  C_4 
REMARK    3  A    between atoms: C_4  and  N_5 
REMARK    4  A    between atoms: N_5  and  C_7 
REMARK    5  A    between atoms: C_7  and  C_8 
REMARK    6  A    between atoms: C_8  and  N_9 
REMARK    7  A    between atoms: C_13  and  N_14 
REMARK    8  A    between atoms: C_17  and  C_18 
REMARK       I    between atoms: C_18  and  N_20 
ROOT
HETATM    1  N   UNK N   1      42.156  36.653  48.931  0.00  0.00    -0.284 N 
HETATM    2  N   UNK N   1      40.861  36.936  48.861  0.00  0.00    -0.292 N 
ATOM      3  HN  UNK N   1      40.173  36.396  48.338  1.00  0.00     0.187 HD
HETATM    4  C   UNK N   1      40.590  38.037  49.580  0.00  0.00     0.126 A 
HETATM    5  C   UNK N   1      41.765  38.482  50.160  0.00  0.00     0.019 A 
HETATM    6  C   UNK N   1      42.768  37.604  49.714  0.00  0.00     0.072 A 
HETATM    7  C   UNK N   1      44.219  37.715  50.163  0.00  0.00     0.014 A 
HETATM    8  C   UNK N   1      45.302  37.241  49.401  0.00  0.00     0.015 A 
HETATM    9  C   UNK N   1      46.617  37.372  49.854  0.00  0.00     0.001 A 
HETATM   10  C   UNK N   1      46.883  37.985  51.075  0.00  0.00     0.002 A 
HETATM   11  C   UNK N   1      45.833  38.490  51.841  0.00  0.00     0.024 A 
HETATM   12  C   UNK N   1      44.515  38.366  51.386  0.00  0.00     0.072 A 
HETATM   13  S   UNK N   1      43.170  39.067  52.302  0.00  0.00     0.180 S 
HETATM   14  O   UNK N   1      43.639  40.198  53.230  0.00  0.00    -0.222 OA
HETATM   15  O   UNK N   1      42.588  38.025  53.269  0.00  0.00    -0.222 OA
HETATM   16  C   UNK N   1      41.940  39.628  51.122  0.00  0.00     0.189 C 
ENDROOT
BRANCH   1  17
HETATM   17  C   UNK N   1      42.608  35.361  48.374  0.00  0.00     0.137 C 
HETATM   18  C   UNK N   1      43.050  34.317  49.414  0.00  0.00     0.031 C 
HETATM   19  C   UNK N   1      43.633  33.103  48.679  0.00  0.00     0.032 C 
HETATM   20  C   UNK N   1      42.632  32.567  47.630  0.00  0.00     0.272 C 
HETATM   21  N   UNK N   1      42.235  33.604  46.642  0.00  0.00     0.092 N 
HETATM   22  C   UNK N   1      41.662  34.794  47.294  0.00  0.00     0.299 C 
BRANCH  21  23
HETATM   23  C   UNK N   1      43.276  33.918  45.641  0.00  0.00     0.302 C 
BRANCH  23  24
HETATM   24  C   UNK N   1      43.133  32.958  44.448  0.00  0.00     0.302 C 
BRANCH  24  25
HETATM   25  N   UNK N   1      42.235  33.459  43.386  0.00  0.00     0.087 N 
HETATM   26  C   UNK N   1      40.956  32.727  43.313  0.00  0.00     0.310 C 
BRANCH  25  27
HETATM   27  C   UNK N   1      42.055  34.927  43.436  0.00  0.00     0.298 C 
BRANCH  27  28
HETATM   28  C   UNK N   1      41.012  35.377  42.417  0.00  0.00     0.197 C 
BRANCH  28  29
HETATM   29  O   UNK N   1      40.333  36.521  42.883  0.00  0.00    -0.394 OA
HETATM   30  C   UNK N   1      38.975  36.433  42.517  0.00  0.00     0.201 C 
ENDBRANCH  28  29
ENDBRANCH  27  28
ENDBRANCH  25  27
ENDBRANCH  24  25
ENDBRANCH  23  24
ENDBRANCH  21  23
ENDBRANCH   1  17
BRANCH   4  31
HETATM   31  C   UNK N   1      39.242  38.695  49.638  0.00  0.00     0.272 C 
HETATM   32  O   UNK N   1      39.036  39.624  48.870  0.00  0.00    -0.266 OA
HETATM   33  N   UNK N   1      38.211  38.257  50.450  0.00  0.00    -0.343 N 
HETATM   34  C   UNK N   1      36.841  38.674  50.133  0.00  0.00     0.152 C 
HETATM   35  C   UNK N   1      38.369  37.130  51.369  0.00  0.00     0.152 C 
HETATM   36  C   UNK N   1      35.943  38.627  51.371  0.00  0.00     0.187 C 
HETATM   37  O   UNK N   1      36.041  37.365  51.999  0.00  0.00    -0.388 OA
HETATM   38  C   UNK N   1      37.350  37.227  52.511  0.00  0.00     0.187 C 
ENDBRANCH   4  31
TORSDOF 8
ENDMDL
MODEL 7
REMARK VINA RESULT:      -7.3      3.446      9.212
REMARK  8 active torsions:
REMARK  status: ('A' for Active; 'I' for Inactive)
REMARK    1  A    between atoms: O_2  and  C_3 
REMARK    2  A    between atoms: C_3  and  C_4 
REMARK    3  A    between atoms: C_4  and  N_5 
REMARK    4  A    between atoms: N_5  and  C_7 
REMARK    5  A    between atoms: C_7  and  C_8 
REMARK    6  A    between atoms: C_8  and  N_9 
REMARK    7  A    between atoms: C_13  and  N_14 
REMARK    8  A    between atoms: C_17  and  C_18 
REMARK       I    between atoms: C_18  and  N_20 
ROOT
HETATM    1  N   UNK N   1      40.134  35.051  49.554  0.00  0.00    -0.284 N 
HETATM    2  N   UNK N   1      40.659  34.018  48.906  0.00  0.00    -0.292 N 
ATOM      3  HN  UNK N   1      40.141  33.192  48.606  1.00  0.00     0.187 HD
HETATM    4  C   UNK N   1      41.970  34.219  48.702  0.00  0.00     0.126 A 
HETATM    5  C   UNK N   1      42.311  35.453  49.231  0.00  0.00     0.019 A 
HETATM    6  C   UNK N   1      41.132  35.964  49.799  0.00  0.00     0.072 A 
HETATM    7  C   UNK N   1      41.061  37.339  50.451  0.00  0.00     0.014 A 
HETATM    8  C   UNK N   1      40.124  37.675  51.444  0.00  0.00     0.015 A 
HETATM    9  C   UNK N   1      40.103  38.950  52.017  0.00  0.00     0.001 A 
HETATM   10  C   UNK N   1      41.022  39.916  51.616  0.00  0.00     0.002 A 
HETATM   11  C   UNK N   1      41.981  39.605  50.654  0.00  0.00     0.024 A 
HETATM   12  C   UNK N   1      42.008  38.327  50.084  0.00  0.00     0.072 A 
HETATM   13  S   UNK N   1      43.264  37.881  48.916  0.00  0.00     0.180 S 
HETATM   14  O   UNK N   1      44.508  38.772  49.048  0.00  0.00    -0.222 OA
HETATM   15  O   UNK N   1      42.777  38.152  47.484  0.00  0.00    -0.222 OA
HETATM   16  C   UNK N   1      43.647  36.145  49.162  0.00  0.00     0.189 C 
ENDROOT
BRANCH   1  17
HETATM   17  C   UNK N   1      38.662  35.104  49.685  0.00  0.00     0.137 C 
HETATM   18  C   UNK N   1      37.883  34.255  48.665  0.00  0.00     0.031 C 
HETATM   19  C   UNK N   1      36.384  34.538  48.830  0.00  0.00     0.032 C 
HETATM   20  C   UNK N   1      35.946  34.325  50.298  0.00  0.00     0.272 C 
HETATM   21  N   UNK N   1      36.719  35.165  51.249  0.00  0.00     0.092 N 
HETATM   22  C   UNK N   1      38.169  34.931  51.137  0.00  0.00     0.299 C 
BRANCH  21  23
HETATM   23  C   UNK N   1      36.346  36.595  51.236  0.00  0.00     0.302 C 
BRANCH  23  24
HETATM   24  C   UNK N   1      35.354  36.867  52.379  0.00  0.00     0.302 C 
BRANCH  24  25
HETATM   25  N   UNK N   1      35.083  38.303  52.603  0.00  0.00     0.087 N 
HETATM   26  C   UNK N   1      35.096  38.681  54.029  0.00  0.00     0.310 C 
BRANCH  25  27
HETATM   27  C   UNK N   1      35.934  39.181  51.769  0.00  0.00     0.298 C 
BRANCH  27  28
HETATM   28  C   UNK N   1      35.094  39.910  50.723  0.00  0.00     0.197 C 
BRANCH  28  29
HETATM   29  O   UNK N   1      35.925  40.626  49.838  0.00  0.00    -0.394 OA
HETATM   30  C   UNK N   1      36.190  39.829  48.707  0.00  0.00     0.201 C 
ENDBRANCH  28  29
ENDBRANCH  27  28
ENDBRANCH  25  27
ENDBRANCH  24  25
ENDBRANCH  23  24
ENDBRANCH  21  23
ENDBRANCH   1  17
BRANCH   4  31
HETATM   31  C   UNK N   1      42.893  33.207  48.088  0.00  0.00     0.272 C 
HETATM   32  O   UNK N   1      43.510  32.474  48.848  0.00  0.00    -0.266 OA
HETATM   33  N   UNK N   1      43.018  33.014  46.724  0.00  0.00    -0.343 N 
HETATM   34  C   UNK N   1      43.594  31.755  46.242  0.00  0.00     0.152 C 
HETATM   35  C   UNK N   1      42.286  33.827  45.753  0.00  0.00     0.152 C 
HETATM   36  C   UNK N   1      44.194  31.914  44.844  0.00  0.00     0.187 C 
HETATM   37  O   UNK N   1      43.250  32.498  43.970  0.00  0.00    -0.388 OA
HETATM   38  C   UNK N   1      43.010  33.822  44.401  0.00  0.00     0.187 C 
ENDBRANCH   4  31
TORSDOF 8
ENDMDL
MODEL 8
REMARK VINA RESULT:      -7.2      3.150      6.350
REMARK  8 active torsions:
REMARK  status: ('A' for Active; 'I' for Inactive)
REMARK    1  A    between atoms: O_2  and  C_3 
REMARK    2  A    between atoms: C_3  and  C_4 
REMARK    3  A    between atoms: C_4  and  N_5 
REMARK    4  A    between atoms: N_5  and  C_7 
REMARK    5  A    between atoms: C_7  and  C_8 
REMARK    6  A    between atoms: C_8  and  N_9 
REMARK    7  A    between atoms: C_13  and  N_14 
REMARK    8  A    between atoms: C_17  and  C_18 
REMARK       I    between atoms: C_18  and  N_20 
ROOT
HETATM    1  N   UNK N   1      40.868  38.275  51.769  0.00  0.00    -0.284 N 
HETATM    2  N   UNK N   1      39.608  38.014  51.444  0.00  0.00    -0.292 N 
ATOM      3  HN  UNK N   1      39.313  37.513  50.606  1.00  0.00     0.187 HD
HETATM    4  C   UNK N   1      38.779  38.504  52.378  0.00  0.00     0.126 A 
HETATM    5  C   UNK N   1      39.540  39.101  53.369  0.00  0.00     0.019 A 
HETATM    6  C   UNK N   1      40.876  38.972  52.954  0.00  0.00     0.072 A 
HETATM    7  C   UNK N   1      42.049  39.461  53.794  0.00  0.00     0.014 A 
HETATM    8  C   UNK N   1      43.292  39.826  53.246  0.00  0.00     0.015 A 
HETATM    9  C   UNK N   1      44.337  40.274  54.058  0.00  0.00     0.001 A 
HETATM   10  C   UNK N   1      44.163  40.376  55.436  0.00  0.00     0.002 A 
HETATM   11  C   UNK N   1      42.935  40.047  56.006  0.00  0.00     0.024 A 
HETATM   12  C   UNK N   1      41.885  39.604  55.194  0.00  0.00     0.072 A 
HETATM   13  S   UNK N   1      40.290  39.255  55.883  0.00  0.00     0.180 S 
HETATM   14  O   UNK N   1      40.074  39.982  57.219  0.00  0.00    -0.222 OA
HETATM   15  O   UNK N   1      40.190  37.769  56.260  0.00  0.00    -0.222 OA
HETATM   16  C   UNK N   1      39.056  39.706  54.661  0.00  0.00     0.189 C 
ENDROOT
BRANCH   1  17
HETATM   17  C   UNK N   1      41.932  37.634  50.968  0.00  0.00     0.137 C 
HETATM   18  C   UNK N   1      41.596  36.230  50.436  0.00  0.00     0.031 C 
HETATM   19  C   UNK N   1      42.845  35.643  49.767  0.00  0.00     0.032 C 
HETATM   20  C   UNK N   1      43.396  36.611  48.694  0.00  0.00     0.272 C 
HETATM   21  N   UNK N   1      43.712  37.952  49.248  0.00  0.00     0.092 N 
HETATM   22  C   UNK N   1      42.543  38.567  49.901  0.00  0.00     0.299 C 
BRANCH  21  23
HETATM   23  C   UNK N   1      44.941  37.996  50.068  0.00  0.00     0.302 C 
BRANCH  23  24
HETATM   24  C   UNK N   1      46.119  38.439  49.184  0.00  0.00     0.302 C 
BRANCH  24  25
HETATM   25  N   UNK N   1      47.399  37.783  49.527  0.00  0.00     0.087 N 
HETATM   26  C   UNK N   1      48.581  38.561  49.108  0.00  0.00     0.310 C 
BRANCH  25  27
HETATM   27  C   UNK N   1      47.463  37.363  50.945  0.00  0.00     0.298 C 
BRANCH  27  28
HETATM   28  C   UNK N   1      48.046  38.476  51.811  0.00  0.00     0.197 C 
BRANCH  28  29
HETATM   29  O   UNK N   1      47.242  38.684  52.950  0.00  0.00    -0.394 OA
HETATM   30  C   UNK N   1      47.616  39.896  53.565  0.00  0.00     0.201 C 
ENDBRANCH  28  29
ENDBRANCH  27  28
ENDBRANCH  25  27
ENDBRANCH  24  25
ENDBRANCH  23  24
ENDBRANCH  21  23
ENDBRANCH   1  17
BRANCH   4  31
HETATM   31  C   UNK N   1      37.281  38.475  52.276  0.00  0.00     0.272 C 
HETATM   32  O   UNK N   1      36.754  39.264  51.504  0.00  0.00    -0.266 OA
HETATM   33  N   UNK N   1      36.487  37.559  52.943  0.00  0.00    -0.343 N 
HETATM   34  C   UNK N   1      35.120  37.333  52.462  0.00  0.00     0.152 C 
HETATM   35  C   UNK N   1      37.047  36.561  53.854  0.00  0.00     0.152 C 
HETATM   36  C   UNK N   1      34.219  36.793  53.574  0.00  0.00     0.187 C 
HETATM   37  O   UNK N   1      34.818  35.669  54.187  0.00  0.00    -0.388 OA
HETATM   38  C   UNK N   1      35.983  36.102  54.859  0.00  0.00     0.187 C 
ENDBRANCH   4  31
TORSDOF 8
ENDMDL
MODEL 9
REMARK VINA RESULT:      -7.0      2.881      3.591
REMARK  8 active torsions:
REMARK  status: ('A' for Active; 'I' for Inactive)
REMARK    1  A    between atoms: O_2  and  C_3 
REMARK    2  A    between atoms: C_3  and  C_4 
REMARK    3  A    between atoms: C_4  and  N_5 
REMARK    4  A    between atoms: N_5  and  C_7 
REMARK    5  A    between atoms: C_7  and  C_8 
REMARK    6  A    between atoms: C_8  and  N_9 
REMARK    7  A    between atoms: C_13  and  N_14 
REMARK    8  A    between atoms: C_17  and  C_18 
REMARK       I    between atoms: C_18  and  N_20 
ROOT
HETATM    1  N   UNK N   1      38.708  37.145  51.122  0.00  0.00    -0.284 N 
HETATM    2  N   UNK N   1      38.891  36.417  52.217  0.00  0.00    -0.292 N 
ATOM      3  HN  UNK N   1      39.749  35.918  52.450  1.00  0.00     0.187 HD
HETATM    4  C   UNK N   1      37.782  36.433  52.973  0.00  0.00     0.126 A 
HETATM    5  C   UNK N   1      36.836  37.226  52.345  0.00  0.00     0.019 A 
HETATM    6  C   UNK N   1      37.431  37.654  51.146  0.00  0.00     0.072 A 
HETATM    7  C   UNK N   1      36.735  38.595  50.172  0.00  0.00     0.014 A 
HETATM    8  C   UNK N   1      37.028  38.638  48.797  0.00  0.00     0.015 A 
HETATM    9  C   UNK N   1      36.358  39.517  47.941  0.00  0.00     0.001 A 
HETATM   10  C   UNK N   1      35.373  40.367  48.438  0.00  0.00     0.002 A 
HETATM   11  C   UNK N   1      35.040  40.328  49.791  0.00  0.00     0.024 A 
HETATM   12  C   UNK N   1      35.706  39.445  50.648  0.00  0.00     0.072 A 
HETATM   13  S   UNK N   1      35.249  39.321  52.355  0.00  0.00     0.180 S 
HETATM   14  O   UNK N   1      33.815  39.812  52.599  0.00  0.00    -0.222 OA
HETATM   15  O   UNK N   1      36.106  40.273  53.204  0.00  0.00    -0.222 OA
HETATM   16  C   UNK N   1      35.474  37.612  52.857  0.00  0.00     0.189 C 
ENDROOT
BRANCH   1  17
HETATM   17  C   UNK N   1      39.887  37.414  50.271  0.00  0.00     0.137 C 
HETATM   18  C   UNK N   1      40.231  38.901  50.080  0.00  0.00     0.031 C 
HETATM   19  C   UNK N   1      41.368  39.017  49.056  0.00  0.00     0.032 C 
HETATM   20  C   UNK N   1      42.570  38.138  49.473  0.00  0.00     0.272 C 
HETATM   21  N   UNK N   1      42.197  36.710  49.643  0.00  0.00     0.092 N 
HETATM   22  C   UNK N   1      41.108  36.538  50.621  0.00  0.00     0.299 C 
BRANCH  21  23
HETATM   23  C   UNK N   1      41.974  35.986  48.374  0.00  0.00     0.302 C 
BRANCH  23  24
HETATM   24  C   UNK N   1      43.064  34.915  48.207  0.00  0.00     0.302 C 
BRANCH  24  25
HETATM   25  N   UNK N   1      42.534  33.541  48.076  0.00  0.00     0.087 N 
HETATM   26  C   UNK N   1      41.987  33.255  46.736  0.00  0.00     0.310 C 
BRANCH  25  27
HETATM   27  C   UNK N   1      43.494  32.512  48.535  0.00  0.00     0.298 C 
BRANCH  27  28
HETATM   28  C   UNK N   1      44.219  31.884  47.348  0.00  0.00     0.197 C 
BRANCH  28  29
HETATM   29  O   UNK N   1      45.464  32.512  47.146  0.00  0.00    -0.394 OA
HETATM   30  C   UNK N   1      45.668  32.699  45.764  0.00  0.00     0.201 C 
ENDBRANCH  28  29
ENDBRANCH  27  28
ENDBRANCH  25  27
ENDBRANCH  24  25
ENDBRANCH  23  24
ENDBRANCH  21  23
ENDBRANCH   1  17
BRANCH   4  31
HETATM   31  C   UNK N   1      37.607  35.633  54.231  0.00  0.00     0.272 C 
HETATM   32  O   UNK N   1      37.116  34.518  54.124  0.00  0.00    -0.266 OA
HETATM   33  N   UNK N   1      38.039  36.058  55.474  0.00  0.00    -0.343 N 
HETATM   34  C   UNK N   1      38.213  35.062  56.536  0.00  0.00     0.152 C 
HETATM   35  C   UNK N   1      38.668  37.363  55.675  0.00  0.00     0.152 C 
HETATM   36  C   UNK N   1      38.112  35.700  57.923  0.00  0.00     0.187 C 
HETATM   37  O   UNK N   1      38.979  36.812  58.014  0.00  0.00    -0.388 OA
HETATM   38  C   UNK N   1      38.510  37.812  57.133  0.00  0.00     0.187 C 
ENDBRANCH   4  31
TORSDOF 8
ENDMDL
