MODEL 1
REMARK VINA RESULT:      -8.8      0.000      0.000
REMARK  5 active torsions:
REMARK  status: ('A' for Active; 'I' for Inactive)
REMARK    1  A    between atoms: C_2  and  C_3 
REMARK       I    between atoms: C_2  and  N_33 
REMARK    2  A    between atoms: N_6  and  C_7 
REMARK    3  A    between atoms: N_10  and  C_11 
REMARK    4  A    between atoms: C_11  and  C_12 
REMARK    5  A    between atoms: C_12  and  N_13 
ROOT
HETATM    1  C   UNK N   1      40.164  38.888  54.328  0.00  0.00     0.126 A 
HETATM    2  N   UNK N   1      40.321  38.627  53.018  0.00  0.00    -0.292 N 
ATOM      3  HN  UNK N   1      39.567  38.402  52.368  1.00  0.00     0.187 HD
HETATM    4  N   UNK N   1      41.607  38.707  52.703  0.00  0.00    -0.284 N 
HETATM    5  C   UNK N   1      42.325  38.996  53.827  0.00  0.00     0.072 A 
HETATM    6  C   UNK N   1      41.410  39.152  54.878  0.00  0.00     0.019 A 
HETATM    7  C   UNK N   1      41.691  39.589  56.294  0.00  0.00     0.189 C 
HETATM    8  S   UNK N   1      43.248  40.488  56.268  0.00  0.00     0.180 S 
HETATM    9  O   UNK N   1      42.984  41.967  55.945  0.00  0.00    -0.222 OA
HETATM   10  O   UNK N   1      43.883  40.562  57.664  0.00  0.00    -0.222 OA
HETATM   11  C   UNK N   1      44.368  39.827  55.070  0.00  0.00     0.072 A 
HETATM   12  C   UNK N   1      45.749  39.961  55.240  0.00  0.00     0.024 A 
HETATM   13  C   UNK N   1      46.621  39.379  54.325  0.00  0.00     0.002 A 
HETATM   14  C   UNK N   1      46.115  38.650  53.248  0.00  0.00     0.001 A 
HETATM   15  C   UNK N   1      44.733  38.523  53.067  0.00  0.00     0.015 A 
HETATM   16  C   UNK N   1      43.829  39.132  53.965  0.00  0.00     0.014 A 
ENDROOT
BRANCH   4  17
HETATM   17  C   UNK N   1      42.041  38.642  51.298  0.00  0.00     0.138 C 
HETATM   18  C   UNK N   1      41.197  39.526  50.399  0.00  0.00     0.059 C 
HETATM   19  C   UNK N   1      41.640  39.021  49.043  0.00  0.00     0.274 C 
HETATM   20  N   UNK N   1      41.741  37.553  49.181  0.00  0.00     0.092 N 
HETATM   21  C   UNK N   1      41.816  37.287  50.636  0.00  0.00     0.299 C 
BRANCH  20  22
HETATM   22  C   UNK N   1      42.876  37.022  48.410  0.00  0.00     0.291 C 
BRANCH  22  23
HETATM   23  C   UNK N   1      43.416  35.701  48.983  0.00  0.00     0.147 C 
BRANCH  23  24
HETATM   24  N   UNK N   1      43.228  34.519  48.114  0.00  0.00    -0.411 N 
HETATM   25  C   UNK N   1      42.615  33.307  48.692  0.00  0.00     0.119 C 
HETATM   26  C   UNK N   1      43.668  32.231  48.999  0.00  0.00     0.056 C 
HETATM   27  C   UNK N   1      44.490  31.919  47.743  0.00  0.00     0.173 C 
HETATM   28  F   UNK N   1      43.667  31.413  46.748  0.00  0.00    -0.249 F 
HETATM   29  C   UNK N   1      45.179  33.197  47.258  0.00  0.00     0.056 C 
HETATM   30  C   UNK N   1      44.144  34.300  46.977  0.00  0.00     0.119 C 
ENDBRANCH  23  24
ENDBRANCH  22  23
ENDBRANCH  20  22
ENDBRANCH   4  17
BRANCH   1  31
HETATM   31  C   UNK N   1      38.848  38.920  55.046  0.00  0.00     0.272 C 
HETATM   32  O   UNK N   1      38.419  37.861  55.487  0.00  0.00    -0.266 OA
HETATM   33  N   UNK N   1      38.115  40.073  55.250  0.00  0.00    -0.343 N 
HETATM   34  C   UNK N   1      36.794  39.950  55.880  0.00  0.00     0.152 C 
HETATM   35  C   UNK N   1      38.579  41.369  54.738  0.00  0.00     0.152 C 
HETATM   36  C   UNK N   1      36.143  41.293  56.216  0.00  0.00     0.187 C 
HETATM   37  O   UNK N   1      36.356  42.221  55.174  0.00  0.00    -0.388 OA
HETATM   38  C   UNK N   1      37.727  42.552  55.206  0.00  0.00     0.187 C 
ENDBRANCH   1  31
TORSDOF 5
ENDMDL
MODEL 2
REMARK VINA RESULT:      -8.5      4.952      9.184
REMARK  5 active torsions:
REMARK  status: ('A' for Active; 'I' for Inactive)
REMARK    1  A    between atoms: C_2  and  C_3 
REMARK       I    between atoms: C_2  and  N_33 
REMARK    2  A    between atoms: N_6  and  C_7 
REMARK    3  A    between atoms: N_10  and  C_11 
REMARK    4  A    between atoms: C_11  and  C_12 
REMARK    5  A    between atoms: C_12  and  N_13 
ROOT
HETATM    1  C   UNK N   1      40.217  38.987  51.754  0.00  0.00     0.126 A 
HETATM    2  N   UNK N   1      39.866  39.450  52.967  0.00  0.00    -0.292 N 
ATOM      3  HN  UNK N   1      38.912  39.652  53.267  1.00  0.00     0.187 HD
HETATM    4  N   UNK N   1      40.952  39.602  53.713  0.00  0.00    -0.284 N 
HETATM    5  C   UNK N   1      42.051  39.265  52.976  0.00  0.00     0.072 A 
HETATM    6  C   UNK N   1      41.595  38.832  51.722  0.00  0.00     0.019 A 
HETATM    7  C   UNK N   1      42.406  38.246  50.593  0.00  0.00     0.189 C 
HETATM    8  S   UNK N   1      43.918  37.594  51.315  0.00  0.00     0.180 S 
HETATM    9  O   UNK N   1      43.682  36.152  51.792  0.00  0.00    -0.222 OA
HETATM   10  O   UNK N   1      45.019  37.417  50.260  0.00  0.00    -0.222 OA
HETATM   11  C   UNK N   1      44.468  38.572  52.682  0.00  0.00     0.072 A 
HETATM   12  C   UNK N   1      45.823  38.615  53.023  0.00  0.00     0.024 A 
HETATM   13  C   UNK N   1      46.252  39.441  54.059  0.00  0.00     0.002 A 
HETATM   14  C   UNK N   1      45.330  40.232  54.744  0.00  0.00     0.001 A 
HETATM   15  C   UNK N   1      43.971  40.183  54.415  0.00  0.00     0.015 A 
HETATM   16  C   UNK N   1      43.508  39.329  53.389  0.00  0.00     0.014 A 
ENDROOT
BRANCH   4  17
HETATM   17  C   UNK N   1      40.842  39.925  55.145  0.00  0.00     0.138 C 
HETATM   18  C   UNK N   1      40.725  38.679  56.003  0.00  0.00     0.059 C 
HETATM   19  C   UNK N   1      40.311  39.304  57.318  0.00  0.00     0.274 C 
HETATM   20  N   UNK N   1      39.341  40.362  56.965  0.00  0.00     0.092 N 
HETATM   21  C   UNK N   1      39.549  40.640  55.525  0.00  0.00     0.299 C 
BRANCH  20  22
HETATM   22  C   UNK N   1      39.494  41.538  57.837  0.00  0.00     0.291 C 
BRANCH  22  23
HETATM   23  C   UNK N   1      38.164  42.268  58.086  0.00  0.00     0.147 C 
BRANCH  23  24
HETATM   24  N   UNK N   1      38.119  43.666  57.608  0.00  0.00    -0.411 N 
HETATM   25  C   UNK N   1      37.905  44.745  58.594  0.00  0.00     0.119 C 
HETATM   26  C   UNK N   1      36.458  45.263  58.559  0.00  0.00     0.056 C 
HETATM   27  C   UNK N   1      36.085  45.699  57.138  0.00  0.00     0.173 C 
HETATM   28  F   UNK N   1      36.901  46.741  56.728  0.00  0.00    -0.249 F 
HETATM   29  C   UNK N   1      36.231  44.507  56.188  0.00  0.00     0.056 C 
HETATM   30  C   UNK N   1      37.665  43.950  56.232  0.00  0.00     0.119 C 
ENDBRANCH  23  24
ENDBRANCH  22  23
ENDBRANCH  20  22
ENDBRANCH   4  17
BRANCH   1  31
HETATM   31  C   UNK N   1      39.257  38.665  50.647  0.00  0.00     0.272 C 
HETATM   32  O   UNK N   1      39.130  39.490  49.752  0.00  0.00    -0.266 OA
HETATM   33  N   UNK N   1      38.536  37.489  50.578  0.00  0.00    -0.343 N 
HETATM   34  C   UNK N   1      37.555  37.343  49.494  0.00  0.00     0.152 C 
HETATM   35  C   UNK N   1      38.645  36.468  51.628  0.00  0.00     0.152 C 
HETATM   36  C   UNK N   1      36.937  35.946  49.405  0.00  0.00     0.187 C 
HETATM   37  O   UNK N   1      36.659  35.446  50.696  0.00  0.00    -0.388 OA
HETATM   38  C   UNK N   1      37.905  35.168  51.296  0.00  0.00     0.187 C 
ENDBRANCH   1  31
TORSDOF 5
ENDMDL
MODEL 3
REMARK VINA RESULT:      -8.2      2.594      3.685
REMARK  5 active torsions:
REMARK  status: ('A' for Active; 'I' for Inactive)
REMARK    1  A    between atoms: C_2  and  C_3 
REMARK       I    between atoms: C_2  and  N_33 
REMARK    2  A    between atoms: N_6  and  C_7 
REMARK    3  A    between atoms: N_10  and  C_11 
REMARK    4  A    between atoms: C_11  and  C_12 
REMARK    5  A    between atoms: C_12  and  N_13 
ROOT
HETATM    1  C   UNK N   1      39.321  38.533  55.582  0.00  0.00     0.126 A 
HETATM    2  N   UNK N   1      39.418  38.384  54.249  0.00  0.00    -0.292 N 
ATOM      3  HN  UNK N   1      38.663  38.080  53.634  1.00  0.00     0.187 HD
HETATM    4  N   UNK N   1      40.648  38.691  53.859  0.00  0.00    -0.284 N 
HETATM    5  C   UNK N   1      41.394  39.022  54.953  0.00  0.00     0.072 A 
HETATM    6  C   UNK N   1      40.548  38.961  56.070  0.00  0.00     0.019 A 
HETATM    7  C   UNK N   1      40.862  39.348  57.493  0.00  0.00     0.189 C 
HETATM    8  S   UNK N   1      42.251  40.488  57.433  0.00  0.00     0.180 S 
HETATM    9  O   UNK N   1      41.734  41.922  57.238  0.00  0.00    -0.222 OA
HETATM   10  O   UNK N   1      42.969  40.577  58.787  0.00  0.00    -0.222 OA
HETATM   11  C   UNK N   1      43.368  40.094  56.121  0.00  0.00     0.072 A 
HETATM   12  C   UNK N   1      44.720  40.440  56.211  0.00  0.00     0.024 A 
HETATM   13  C   UNK N   1      45.602  40.065  55.201  0.00  0.00     0.002 A 
HETATM   14  C   UNK N   1      45.137  39.332  54.109  0.00  0.00     0.001 A 
HETATM   15  C   UNK N   1      43.783  38.994  54.007  0.00  0.00     0.015 A 
HETATM   16  C   UNK N   1      42.864  39.391  55.004  0.00  0.00     0.014 A 
ENDROOT
BRANCH   4  17
HETATM   17  C   UNK N   1      40.980  38.785  52.428  0.00  0.00     0.138 C 
HETATM   18  C   UNK N   1      40.983  40.221  51.938  0.00  0.00     0.059 C 
HETATM   19  C   UNK N   1      41.025  39.987  50.443  0.00  0.00     0.274 C 
HETATM   20  N   UNK N   1      40.109  38.854  50.194  0.00  0.00     0.092 N 
HETATM   21  C   UNK N   1      39.929  38.182  51.502  0.00  0.00     0.299 C 
BRANCH  20  22
HETATM   22  C   UNK N   1      40.623  37.977  49.129  0.00  0.00     0.291 C 
BRANCH  22  23
HETATM   23  C   UNK N   1      41.793  38.608  48.356  0.00  0.00     0.147 C 
BRANCH  23  24
HETATM   24  N   UNK N   1      43.105  37.962  48.571  0.00  0.00    -0.411 N 
HETATM   25  C   UNK N   1      43.144  36.634  49.214  0.00  0.00     0.119 C 
HETATM   26  C   UNK N   1      43.565  36.731  50.689  0.00  0.00     0.056 C 
HETATM   27  C   UNK N   1      44.902  37.470  50.811  0.00  0.00     0.173 C 
HETATM   28  F   UNK N   1      45.897  36.769  50.149  0.00  0.00    -0.249 F 
HETATM   29  C   UNK N   1      44.761  38.874  50.219  0.00  0.00     0.056 C 
HETATM   30  C   UNK N   1      44.307  38.802  48.750  0.00  0.00     0.119 C 
ENDBRANCH  23  24
ENDBRANCH  22  23
ENDBRANCH  20  22
ENDBRANCH   4  17
BRANCH   1  31
HETATM   31  C   UNK N   1      38.074  38.306  56.384  0.00  0.00     0.272 C 
HETATM   32  O   UNK N   1      37.366  39.278  56.615  0.00  0.00    -0.266 OA
HETATM   33  N   UNK N   1      37.680  37.067  56.851  0.00  0.00    -0.343 N 
HETATM   34  C   UNK N   1      36.490  36.999  57.710  0.00  0.00     0.152 C 
HETATM   35  C   UNK N   1      38.494  35.869  56.608  0.00  0.00     0.152 C 
HETATM   36  C   UNK N   1      36.040  35.572  58.029  0.00  0.00     0.187 C 
HETATM   37  O   UNK N   1      37.157  34.747  58.285  0.00  0.00    -0.388 OA
HETATM   38  C   UNK N   1      37.816  34.569  57.050  0.00  0.00     0.187 C 
ENDBRANCH   1  31
TORSDOF 5
ENDMDL
MODEL 4
REMARK VINA RESULT:      -8.1      1.434      2.284
REMARK  5 active torsions:
REMARK  status: ('A' for Active; 'I' for Inactive)
REMARK    1  A    between atoms: C_2  and  C_3 
REMARK       I    between atoms: C_2  and  N_33 
REMARK    2  A    between atoms: N_6  and  C_7 
REMARK    3  A    between atoms: N_10  and  C_11 
REMARK    4  A    between atoms: C_11  and  C_12 
REMARK    5  A    between atoms: C_12  and  N_13 
ROOT
HETATM    1  C   UNK N   1      40.010  38.947  54.450  0.00  0.00     0.126 A 
HETATM    2  N   UNK N   1      40.119  38.709  53.131  0.00  0.00    -0.292 N 
ATOM      3  HN  UNK N   1      39.340  38.509  52.503  1.00  0.00     0.187 HD
HETATM    4  N   UNK N   1      41.394  38.774  52.774  0.00  0.00    -0.284 N 
HETATM    5  C   UNK N   1      42.155  39.029  53.878  0.00  0.00     0.072 A 
HETATM    6  C   UNK N   1      41.278  39.179  54.963  0.00  0.00     0.019 A 
HETATM    7  C   UNK N   1      41.614  39.584  56.376  0.00  0.00     0.189 C 
HETATM    8  S   UNK N   1      43.184  40.458  56.315  0.00  0.00     0.180 S 
HETATM    9  O   UNK N   1      42.934  41.947  56.029  0.00  0.00    -0.222 OA
HETATM   10  O   UNK N   1      43.866  40.494  57.689  0.00  0.00    -0.222 OA
HETATM   11  C   UNK N   1      44.252  39.802  55.067  0.00  0.00     0.072 A 
HETATM   12  C   UNK N   1      45.640  39.911  55.193  0.00  0.00     0.024 A 
HETATM   13  C   UNK N   1      46.471  39.332  54.238  0.00  0.00     0.002 A 
HETATM   14  C   UNK N   1      45.917  38.633  53.165  0.00  0.00     0.001 A 
HETATM   15  C   UNK N   1      44.528  38.532  53.028  0.00  0.00     0.015 A 
HETATM   16  C   UNK N   1      43.664  39.138  53.968  0.00  0.00     0.014 A 
ENDROOT
BRANCH   4  17
HETATM   17  C   UNK N   1      41.780  38.730  51.354  0.00  0.00     0.138 C 
HETATM   18  C   UNK N   1      40.759  39.414  50.465  0.00  0.00     0.059 C 
HETATM   19  C   UNK N   1      41.234  38.941  49.108  0.00  0.00     0.274 C 
HETATM   20  N   UNK N   1      41.599  37.520  49.290  0.00  0.00     0.092 N 
HETATM   21  C   UNK N   1      41.775  37.330  50.749  0.00  0.00     0.299 C 
BRANCH  20  22
HETATM   22  C   UNK N   1      42.781  37.166  48.488  0.00  0.00     0.291 C 
BRANCH  22  23
HETATM   23  C   UNK N   1      43.418  35.837  48.925  0.00  0.00     0.147 C 
BRANCH  23  24
HETATM   24  N   UNK N   1      42.949  34.645  48.187  0.00  0.00    -0.411 N 
HETATM   25  C   UNK N   1      43.845  33.475  48.088  0.00  0.00     0.119 C 
HETATM   26  C   UNK N   1      44.515  33.391  46.707  0.00  0.00     0.056 C 
HETATM   27  C   UNK N   1      43.454  33.399  45.601  0.00  0.00     0.173 C 
HETATM   28  F   UNK N   1      42.629  32.291  45.723  0.00  0.00    -0.249 F 
HETATM   29  C   UNK N   1      42.629  34.685  45.700  0.00  0.00     0.056 C 
HETATM   30  C   UNK N   1      41.976  34.807  47.087  0.00  0.00     0.119 C 
ENDBRANCH  23  24
ENDBRANCH  22  23
ENDBRANCH  20  22
ENDBRANCH   4  17
BRANCH   1  31
HETATM   31  C   UNK N   1      38.719  38.986  55.213  0.00  0.00     0.272 C 
HETATM   32  O   UNK N   1      38.002  39.965  55.060  0.00  0.00    -0.266 OA
HETATM   33  N   UNK N   1      38.297  37.974  56.054  0.00  0.00    -0.343 N 
HETATM   34  C   UNK N   1      37.061  38.183  56.819  0.00  0.00     0.152 C 
HETATM   35  C   UNK N   1      39.121  36.779  56.279  0.00  0.00     0.152 C 
HETATM   36  C   UNK N   1      36.591  36.943  57.583  0.00  0.00     0.187 C 
HETATM   37  O   UNK N   1      37.690  36.275  58.164  0.00  0.00    -0.388 OA
HETATM   38  C   UNK N   1      38.416  35.697  57.102  0.00  0.00     0.187 C 
ENDBRANCH   1  31
TORSDOF 5
ENDMDL
MODEL 5
REMARK VINA RESULT:      -8.0      5.355      9.764
REMARK  5 active torsions:
REMARK  status: ('A' for Active; 'I' for Inactive)
REMARK    1  A    between atoms: C_2  and  C_3 
REMARK       I    between atoms: C_2  and  N_33 
REMARK    2  A    between atoms: N_6  and  C_7 
REMARK    3  A    between atoms: N_10  and  C_11 
REMARK    4  A    between atoms: C_11  and  C_12 
REMARK    5  A    between atoms: C_12  and  N_13 
ROOT
HETATM    1  C   UNK N   1      40.517  34.910  48.024  0.00  0.00     0.126 A 
HETATM    2  N   UNK N   1      40.986  35.964  48.715  0.00  0.00    -0.292 N 
ATOM      3  HN  UNK N   1      41.883  36.423  48.553  1.00  0.00     0.187 HD
HETATM    4  N   UNK N   1      40.101  36.316  49.638  0.00  0.00    -0.284 N 
HETATM    5  C   UNK N   1      39.037  35.463  49.585  0.00  0.00     0.072 A 
HETATM    6  C   UNK N   1      39.269  34.571  48.528  0.00  0.00     0.019 A 
HETATM    7  C   UNK N   1      38.341  33.513  47.987  0.00  0.00     0.189 C 
HETATM    8  S   UNK N   1      36.673  33.983  48.464  0.00  0.00     0.180 S 
HETATM    9  O   UNK N   1      36.082  34.932  47.408  0.00  0.00    -0.222 OA
HETATM   10  O   UNK N   1      35.710  32.788  48.410  0.00  0.00    -0.222 OA
HETATM   11  C   UNK N   1      36.641  34.783  50.040  0.00  0.00     0.072 A 
HETATM   12  C   UNK N   1      35.496  34.728  50.840  0.00  0.00     0.024 A 
HETATM   13  C   UNK N   1      35.506  35.305  52.108  0.00  0.00     0.002 A 
HETATM   14  C   UNK N   1      36.664  35.923  52.581  0.00  0.00     0.001 A 
HETATM   15  C   UNK N   1      37.809  35.991  51.779  0.00  0.00     0.015 A 
HETATM   16  C   UNK N   1      37.812  35.441  50.478  0.00  0.00     0.014 A 
ENDROOT
BRANCH   4  17
HETATM   17  C   UNK N   1      40.280  37.552  50.418  0.00  0.00     0.138 C 
HETATM   18  C   UNK N   1      40.446  38.768  49.528  0.00  0.00     0.059 C 
HETATM   19  C   UNK N   1      40.919  39.779  50.550  0.00  0.00     0.274 C 
HETATM   20  N   UNK N   1      41.865  39.048  51.420  0.00  0.00     0.092 N 
HETATM   21  C   UNK N   1      41.584  37.609  51.206  0.00  0.00     0.299 C 
BRANCH  20  22
HETATM   22  C   UNK N   1      41.747  39.485  52.821  0.00  0.00     0.291 C 
BRANCH  22  23
HETATM   23  C   UNK N   1      42.930  39.024  53.687  0.00  0.00     0.147 C 
BRANCH  23  24
HETATM   24  N   UNK N   1      44.225  39.662  53.368  0.00  0.00    -0.411 N 
HETATM   25  C   UNK N   1      45.236  38.882  52.627  0.00  0.00     0.119 C 
HETATM   26  C   UNK N   1      46.344  38.362  53.557  0.00  0.00     0.056 C 
HETATM   27  C   UNK N   1      46.970  39.524  54.336  0.00  0.00     0.173 C 
HETATM   28  F   UNK N   1      47.561  40.422  53.460  0.00  0.00    -0.249 F 
HETATM   29  C   UNK N   1      45.887  40.225  55.160  0.00  0.00     0.056 C 
HETATM   30  C   UNK N   1      44.750  40.723  54.252  0.00  0.00     0.119 C 
ENDBRANCH  23  24
ENDBRANCH  22  23
ENDBRANCH  20  22
ENDBRANCH   4  17
BRANCH   1  31
HETATM   31  C   UNK N   1      41.226  34.248  46.880  0.00  0.00     0.272 C 
HETATM   32  O   UNK N   1      40.854  34.528  45.747  0.00  0.00    -0.266 OA
HETATM   33  N   UNK N   1      42.277  33.366  47.038  0.00  0.00    -0.343 N 
HETATM   34  C   UNK N   1      42.816  32.711  45.839  0.00  0.00     0.152 C 
HETATM   35  C   UNK N   1      42.760  32.990  48.374  0.00  0.00     0.152 C 
HETATM   36  C   UNK N   1      44.081  31.892  46.099  0.00  0.00     0.187 C 
HETATM   37  O   UNK N   1      43.969  31.182  47.314  0.00  0.00    -0.388 OA
HETATM   38  C   UNK N   1      44.034  32.141  48.346  0.00  0.00     0.187 C 
ENDBRANCH   1  31
TORSDOF 5
ENDMDL
MODEL 6
REMARK VINA RESULT:      -8.0      5.338      9.235
REMARK  5 active torsions:
REMARK  status: ('A' for Active; 'I' for Inactive)
REMARK    1  A    between atoms: C_2  and  C_3 
REMARK       I    between atoms: C_2  and  N_33 
REMARK    2  A    between atoms: N_6  and  C_7 
REMARK    3  A    between atoms: N_10  and  C_11 
REMARK    4  A    between atoms: C_11  and  C_12 
REMARK    5  A    between atoms: C_12  and  N_13 
ROOT
HETATM    1  C   UNK N   1      40.465  34.834  48.253  0.00  0.00     0.126 A 
HETATM    2  N   UNK N   1      39.335  34.364  48.810  0.00  0.00    -0.292 N 
ATOM      3  HN  UNK N   1      38.798  33.566  48.470  1.00  0.00     0.187 HD
HETATM    4  N   UNK N   1      39.026  35.100  49.870  0.00  0.00    -0.284 N 
HETATM    5  C   UNK N   1      39.947  36.097  50.005  0.00  0.00     0.072 A 
HETATM    6  C   UNK N   1      40.904  35.922  48.995  0.00  0.00     0.019 A 
HETATM    7  C   UNK N   1      42.184  36.691  48.786  0.00  0.00     0.189 C 
HETATM    8  S   UNK N   1      42.619  37.426  50.368  0.00  0.00     0.180 S 
HETATM    9  O   UNK N   1      43.445  36.425  51.192  0.00  0.00    -0.222 OA
HETATM   10  O   UNK N   1      43.595  38.599  50.199  0.00  0.00    -0.222 OA
HETATM   11  C   UNK N   1      41.186  37.890  51.294  0.00  0.00     0.072 A 
HETATM   12  C   UNK N   1      41.250  38.930  52.226  0.00  0.00     0.024 A 
HETATM   13  C   UNK N   1      40.099  39.330  52.900  0.00  0.00     0.002 A 
HETATM   14  C   UNK N   1      38.882  38.702  52.632  0.00  0.00     0.001 A 
HETATM   15  C   UNK N   1      38.816  37.653  51.708  0.00  0.00     0.015 A 
HETATM   16  C   UNK N   1      39.976  37.208  51.037  0.00  0.00     0.014 A 
ENDROOT
BRANCH   4  17
HETATM   17  C   UNK N   1      37.934  34.697  50.771  0.00  0.00     0.138 C 
HETATM   18  C   UNK N   1      37.607  33.221  50.646  0.00  0.00     0.059 C 
HETATM   19  C   UNK N   1      36.297  33.177  51.405  0.00  0.00     0.274 C 
HETATM   20  N   UNK N   1      35.564  34.395  50.999  0.00  0.00     0.092 N 
HETATM   21  C   UNK N   1      36.580  35.307  50.423  0.00  0.00     0.299 C 
BRANCH  20  22
HETATM   22  C   UNK N   1      34.811  34.964  52.128  0.00  0.00     0.291 C 
BRANCH  22  23
HETATM   23  C   UNK N   1      34.665  33.979  53.299  0.00  0.00     0.147 C 
BRANCH  23  24
HETATM   24  N   UNK N   1      35.404  34.350  54.525  0.00  0.00    -0.411 N 
HETATM   25  C   UNK N   1      36.268  35.547  54.496  0.00  0.00     0.119 C 
HETATM   26  C   UNK N   1      37.753  35.169  54.372  0.00  0.00     0.056 C 
HETATM   27  C   UNK N   1      38.149  34.200  55.491  0.00  0.00     0.173 C 
HETATM   28  F   UNK N   1      37.983  34.805  56.728  0.00  0.00    -0.249 F 
HETATM   29  C   UNK N   1      37.284  32.940  55.400  0.00  0.00     0.056 C 
HETATM   30  C   UNK N   1      35.791  33.298  55.487  0.00  0.00     0.119 C 
ENDBRANCH  23  24
ENDBRANCH  22  23
ENDBRANCH  20  22
ENDBRANCH   4  17
BRANCH   1  31
HETATM   31  C   UNK N   1      41.142  34.242  47.053  0.00  0.00     0.272 C 
HETATM   32  O   UNK N   1      40.703  34.543  45.951  0.00  0.00    -0.266 OA
HETATM   33  N   UNK N   1      42.236  33.402  47.128  0.00  0.00    -0.343 N 
HETATM   34  C   UNK N   1      42.740  32.811  45.881  0.00  0.00     0.152 C 
HETATM   35  C   UNK N   1      42.800  33.003  48.424  0.00  0.00     0.152 C 
HETATM   36  C   UNK N   1      44.050  32.039  46.049  0.00  0.00     0.187 C 
HETATM   37  O   UNK N   1      44.029  31.285  47.243  0.00  0.00    -0.388 OA
HETATM   38  C   UNK N   1      44.106  32.210  48.304  0.00  0.00     0.187 C 
ENDBRANCH   1  31
TORSDOF 5
ENDMDL
MODEL 7
REMARK VINA RESULT:      -8.0      5.195     10.039
REMARK  5 active torsions:
REMARK  status: ('A' for Active; 'I' for Inactive)
REMARK    1  A    between atoms: C_2  and  C_3 
REMARK       I    between atoms: C_2  and  N_33 
REMARK    2  A    between atoms: N_6  and  C_7 
REMARK    3  A    between atoms: N_10  and  C_11 
REMARK    4  A    between atoms: C_11  and  C_12 
REMARK    5  A    between atoms: C_12  and  N_13 
ROOT
HETATM    1  C   UNK N   1      40.730  34.964  48.203  0.00  0.00     0.126 A 
HETATM    2  N   UNK N   1      41.337  35.916  48.934  0.00  0.00    -0.292 N 
ATOM      3  HN  UNK N   1      42.269  36.291  48.756  1.00  0.00     0.187 HD
HETATM    4  N   UNK N   1      40.536  36.293  49.921  0.00  0.00    -0.284 N 
HETATM    5  C   UNK N   1      39.386  35.559  49.869  0.00  0.00     0.072 A 
HETATM    6  C   UNK N   1      39.477  34.722  48.747  0.00  0.00     0.019 A 
HETATM    7  C   UNK N   1      38.419  33.803  48.189  0.00  0.00     0.189 C 
HETATM    8  S   UNK N   1      36.832  34.408  48.778  0.00  0.00     0.180 S 
HETATM    9  O   UNK N   1      36.299  35.482  47.816  0.00  0.00    -0.222 OA
HETATM   10  O   UNK N   1      35.748  33.325  48.699  0.00  0.00    -0.222 OA
HETATM   11  C   UNK N   1      36.955  35.098  50.401  0.00  0.00     0.072 A 
HETATM   12  C   UNK N   1      35.847  35.108  51.254  0.00  0.00     0.024 A 
HETATM   13  C   UNK N   1      35.973  35.593  52.553  0.00  0.00     0.002 A 
HETATM   14  C   UNK N   1      37.209  36.056  53.004  0.00  0.00     0.001 A 
HETATM   15  C   UNK N   1      38.319  36.060  52.151  0.00  0.00     0.015 A 
HETATM   16  C   UNK N   1      38.206  35.603  50.819  0.00  0.00     0.014 A 
ENDROOT
BRANCH   4  17
HETATM   17  C   UNK N   1      40.878  37.448  50.767  0.00  0.00     0.138 C 
HETATM   18  C   UNK N   1      40.379  38.754  50.177  0.00  0.00     0.059 C 
HETATM   19  C   UNK N   1      41.130  39.739  51.048  0.00  0.00     0.274 C 
HETATM   20  N   UNK N   1      42.486  39.174  51.204  0.00  0.00     0.092 N 
HETATM   21  C   UNK N   1      42.373  37.740  50.850  0.00  0.00     0.299 C 
BRANCH  20  22
HETATM   22  C   UNK N   1      43.014  39.423  52.555  0.00  0.00     0.291 C 
BRANCH  22  23
HETATM   23  C   UNK N   1      42.018  40.177  53.451  0.00  0.00     0.147 C 
BRANCH  23  24
HETATM   24  N   UNK N   1      41.890  39.650  54.826  0.00  0.00    -0.411 N 
HETATM   25  C   UNK N   1      40.538  39.480  55.397  0.00  0.00     0.119 C 
HETATM   26  C   UNK N   1      40.194  40.607  56.383  0.00  0.00     0.056 C 
HETATM   27  C   UNK N   1      41.270  40.707  57.470  0.00  0.00     0.173 C 
HETATM   28  F   UNK N   1      41.322  39.529  58.199  0.00  0.00    -0.249 F 
HETATM   29  C   UNK N   1      42.626  40.985  56.817  0.00  0.00     0.056 C 
HETATM   30  C   UNK N   1      42.975  39.886  55.800  0.00  0.00     0.119 C 
ENDBRANCH  23  24
ENDBRANCH  22  23
ENDBRANCH  20  22
ENDBRANCH   4  17
BRANCH   1  31
HETATM   31  C   UNK N   1      41.314  34.313  46.985  0.00  0.00     0.272 C 
HETATM   32  O   UNK N   1      40.858  34.638  45.897  0.00  0.00    -0.266 OA
HETATM   33  N   UNK N   1      42.342  33.391  47.029  0.00  0.00    -0.343 N 
HETATM   34  C   UNK N   1      42.753  32.754  45.770  0.00  0.00     0.152 C 
HETATM   35  C   UNK N   1      42.923  32.961  48.307  0.00  0.00     0.152 C 
HETATM   36  C   UNK N   1      44.005  31.884  45.899  0.00  0.00     0.187 C 
HETATM   37  O   UNK N   1      43.971  31.144  47.100  0.00  0.00    -0.388 OA
HETATM   38  C   UNK N   1      44.158  32.070  48.148  0.00  0.00     0.187 C 
ENDBRANCH   1  31
TORSDOF 5
ENDMDL
MODEL 8
REMARK VINA RESULT:      -7.9      4.775      7.635
REMARK  5 active torsions:
REMARK  status: ('A' for Active; 'I' for Inactive)
REMARK    1  A    between atoms: C_2  and  C_3 
REMARK       I    between atoms: C_2  and  N_33 
REMARK    2  A    between atoms: N_6  and  C_7 
REMARK    3  A    between atoms: N_10  and  C_11 
REMARK    4  A    between atoms: C_11  and  C_12 
REMARK    5  A    between atoms: C_12  and  N_13 
ROOT
HETATM    1  C   UNK N   1      37.158  35.532  51.039  0.00  0.00     0.126 A 
HETATM    2  N   UNK N   1      38.422  35.793  50.660  0.00  0.00    -0.292 N 
ATOM      3  HN  UNK N   1      38.975  35.222  50.020  1.00  0.00     0.187 HD
HETATM    4  N   UNK N   1      38.837  36.908  51.246  0.00  0.00    -0.284 N 
HETATM    5  C   UNK N   1      37.846  37.383  52.055  0.00  0.00     0.072 A 
HETATM    6  C   UNK N   1      36.742  36.530  51.908  0.00  0.00     0.019 A 
HETATM    7  C   UNK N   1      35.364  36.688  52.499  0.00  0.00     0.189 C 
HETATM    8  S   UNK N   1      35.153  38.431  52.883  0.00  0.00     0.180 S 
HETATM    9  O   UNK N   1      34.624  39.173  51.645  0.00  0.00    -0.222 OA
HETATM   10  O   UNK N   1      34.030  38.654  53.907  0.00  0.00    -0.222 OA
HETATM   11  C   UNK N   1      36.670  39.178  53.398  0.00  0.00     0.072 A 
HETATM   12  C   UNK N   1      36.662  40.291  54.245  0.00  0.00     0.024 A 
HETATM   13  C   UNK N   1      37.864  40.828  54.697  0.00  0.00     0.002 A 
HETATM   14  C   UNK N   1      39.073  40.248  54.315  0.00  0.00     0.001 A 
HETATM   15  C   UNK N   1      39.087  39.142  53.457  0.00  0.00     0.015 A 
HETATM   16  C   UNK N   1      37.881  38.599  52.960  0.00  0.00     0.014 A 
ENDROOT
BRANCH   4  17
HETATM   17  C   UNK N   1      40.120  37.522  50.868  0.00  0.00     0.138 C 
HETATM   18  C   UNK N   1      39.971  38.485  49.706  0.00  0.00     0.059 C 
HETATM   19  C   UNK N   1      41.427  38.692  49.348  0.00  0.00     0.274 C 
HETATM   20  N   UNK N   1      42.054  37.358  49.458  0.00  0.00     0.092 N 
HETATM   21  C   UNK N   1      41.133  36.543  50.283  0.00  0.00     0.299 C 
BRANCH  20  22
HETATM   22  C   UNK N   1      43.421  37.455  49.995  0.00  0.00     0.291 C 
BRANCH  22  23
HETATM   23  C   UNK N   1      43.661  38.759  50.774  0.00  0.00     0.147 C 
BRANCH  23  24
HETATM   24  N   UNK N   1      43.509  38.649  52.240  0.00  0.00    -0.411 N 
HETATM   25  C   UNK N   1      42.560  39.552  52.923  0.00  0.00     0.119 C 
HETATM   26  C   UNK N   1      43.287  40.704  53.635  0.00  0.00     0.056 C 
HETATM   27  C   UNK N   1      44.348  40.150  54.593  0.00  0.00     0.173 C 
HETATM   28  F   UNK N   1      43.747  39.379  55.575  0.00  0.00    -0.249 F 
HETATM   29  C   UNK N   1      45.355  39.310  53.803  0.00  0.00     0.056 C 
HETATM   30  C   UNK N   1      44.644  38.170  53.055  0.00  0.00     0.119 C 
ENDBRANCH  23  24
ENDBRANCH  22  23
ENDBRANCH  20  22
ENDBRANCH   4  17
BRANCH   1  31
HETATM   31  C   UNK N   1      36.341  34.368  50.561  0.00  0.00     0.272 C 
HETATM   32  O   UNK N   1      35.730  34.501  49.508  0.00  0.00    -0.266 OA
HETATM   33  N   UNK N   1      36.260  33.163  51.231  0.00  0.00    -0.343 N 
HETATM   34  C   UNK N   1      35.343  32.142  50.708  0.00  0.00     0.152 C 
HETATM   35  C   UNK N   1      36.967  32.951  52.501  0.00  0.00     0.152 C 
HETATM   36  C   UNK N   1      35.456  30.790  51.416  0.00  0.00     0.187 C 
HETATM   37  O   UNK N   1      35.607  30.973  52.808  0.00  0.00    -0.388 OA
HETATM   38  C   UNK N   1      36.898  31.506  53.005  0.00  0.00     0.187 C 
ENDBRANCH   1  31
TORSDOF 5
ENDMDL
MODEL 9
REMARK VINA RESULT:      -7.8      3.293      4.473
REMARK  5 active torsions:
REMARK  status: ('A' for Active; 'I' for Inactive)
REMARK    1  A    between atoms: C_2  and  C_3 
REMARK       I    between atoms: C_2  and  N_33 
REMARK    2  A    between atoms: N_6  and  C_7 
REMARK    3  A    between atoms: N_10  and  C_11 
REMARK    4  A    between atoms: C_11  and  C_12 
REMARK    5  A    between atoms: C_12  and  N_13 
ROOT
HETATM    1  C   UNK N   1      38.539  38.193  53.881  0.00  0.00     0.126 A 
HETATM    2  N   UNK N   1      39.154  38.321  52.692  0.00  0.00    -0.292 N 
ATOM      3  HN  UNK N   1      38.745  38.082  51.788  1.00  0.00     0.187 HD
HETATM    4  N   UNK N   1      40.375  38.805  52.877  0.00  0.00    -0.284 N 
HETATM    5  C   UNK N   1      40.591  38.974  54.214  0.00  0.00     0.072 A 
HETATM    6  C   UNK N   1      39.407  38.620  54.876  0.00  0.00     0.019 A 
HETATM    7  C   UNK N   1      39.095  38.741  56.347  0.00  0.00     0.189 C 
HETATM    8  S   UNK N   1      40.205  39.986  57.018  0.00  0.00     0.180 S 
HETATM    9  O   UNK N   1      39.580  41.380  56.849  0.00  0.00    -0.222 OA
HETATM   10  O   UNK N   1      40.335  39.865  58.543  0.00  0.00    -0.222 OA
HETATM   11  C   UNK N   1      41.782  39.959  56.219  0.00  0.00     0.072 A 
HETATM   12  C   UNK N   1      42.926  40.396  56.893  0.00  0.00     0.024 A 
HETATM   13  C   UNK N   1      44.172  40.307  56.277  0.00  0.00     0.002 A 
HETATM   14  C   UNK N   1      44.276  39.770  54.994  0.00  0.00     0.001 A 
HETATM   15  C   UNK N   1      43.132  39.343  54.310  0.00  0.00     0.015 A 
HETATM   16  C   UNK N   1      41.854  39.453  54.903  0.00  0.00     0.014 A 
ENDROOT
BRANCH   4  17
HETATM   17  C   UNK N   1      41.204  39.211  51.730  0.00  0.00     0.138 C 
HETATM   18  C   UNK N   1      40.402  39.281  50.444  0.00  0.00     0.059 C 
HETATM   19  C   UNK N   1      41.528  39.391  49.438  0.00  0.00     0.274 C 
HETATM   20  N   UNK N   1      42.571  38.456  49.909  0.00  0.00     0.092 N 
HETATM   21  C   UNK N   1      42.266  38.191  51.335  0.00  0.00     0.299 C 
BRANCH  20  22
HETATM   22  C   UNK N   1      43.919  38.997  49.669  0.00  0.00     0.291 C 
BRANCH  22  23
HETATM   23  C   UNK N   1      44.860  37.973  49.013  0.00  0.00     0.147 C 
BRANCH  23  24
HETATM   24  N   UNK N   1      45.888  37.403  49.909  0.00  0.00    -0.411 N 
HETATM   25  C   UNK N   1      45.692  37.508  51.369  0.00  0.00     0.119 C 
HETATM   26  C   UNK N   1      46.561  38.620  51.978  0.00  0.00     0.056 C 
HETATM   27  C   UNK N   1      48.033  38.405  51.608  0.00  0.00     0.173 C 
HETATM   28  F   UNK N   1      48.485  37.203  52.129  0.00  0.00    -0.249 F 
HETATM   29  C   UNK N   1      48.179  38.410  50.084  0.00  0.00     0.056 C 
HETATM   30  C   UNK N   1      47.290  37.326  49.450  0.00  0.00     0.119 C 
ENDBRANCH  23  24
ENDBRANCH  22  23
ENDBRANCH  20  22
ENDBRANCH   4  17
BRANCH   1  31
HETATM   31  C   UNK N   1      37.134  37.704  54.073  0.00  0.00     0.272 C 
HETATM   32  O   UNK N   1      36.236  38.535  54.037  0.00  0.00    -0.266 OA
HETATM   33  N   UNK N   1      36.807  36.376  54.266  0.00  0.00    -0.343 N 
HETATM   34  C   UNK N   1      35.403  36.043  54.543  0.00  0.00     0.152 C 
HETATM   35  C   UNK N   1      37.844  35.337  54.324  0.00  0.00     0.152 C 
HETATM   36  C   UNK N   1      35.118  34.541  54.569  0.00  0.00     0.187 C 
HETATM   37  O   UNK N   1      36.160  33.851  55.226  0.00  0.00    -0.388 OA
HETATM   38  C   UNK N   1      37.282  33.914  54.373  0.00  0.00     0.187 C 
ENDBRANCH   1  31
TORSDOF 5
ENDMDL
