MODEL 1
REMARK VINA RESULT:      -8.7      0.000      0.000
REMARK  5 active torsions:
REMARK  status: ('A' for Active; 'I' for Inactive)
REMARK    1  A    between atoms: C_2  and  C_3 
REMARK       I    between atoms: C_2  and  N_35 
REMARK    2  A    between atoms: N_6  and  C_7 
REMARK    3  A    between atoms: N_11  and  C_12 
REMARK    4  A    between atoms: C_12  and  C_13 
REMARK    5  A    between atoms: C_13  and  N_14 
ROOT
HETATM    1  C   UNK N   1      39.158  34.810  49.436  0.00  0.00     0.126 A 
HETATM    2  N   UNK N   1      40.203  34.288  48.766  0.00  0.00    -0.292 N 
ATOM      3  HN  UNK N   1      40.155  33.496  48.126  1.00  0.00     0.187 HD
HETATM    4  N   UNK N   1      41.304  34.967  49.066  0.00  0.00    -0.284 N 
HETATM    5  C   UNK N   1      40.995  35.944  49.970  0.00  0.00     0.072 A 
HETATM    6  C   UNK N   1      39.615  35.871  50.209  0.00  0.00     0.019 A 
HETATM    7  C   UNK N   1      38.774  36.796  51.052  0.00  0.00     0.189 C 
HETATM    8  S   UNK N   1      39.643  38.361  51.146  0.00  0.00     0.180 S 
HETATM    9  O   UNK N   1      39.247  39.247  49.954  0.00  0.00    -0.222 OA
HETATM   10  O   UNK N   1      39.168  39.192  52.348  0.00  0.00    -0.222 OA
HETATM   11  C   UNK N   1      41.396  38.146  51.159  0.00  0.00     0.072 A 
HETATM   12  C   UNK N   1      42.220  39.118  51.732  0.00  0.00     0.024 A 
HETATM   13  C   UNK N   1      43.597  38.920  51.784  0.00  0.00     0.002 A 
HETATM   14  C   UNK N   1      44.149  37.742  51.282  0.00  0.00     0.001 A 
HETATM   15  C   UNK N   1      43.329  36.767  50.702  0.00  0.00     0.015 A 
HETATM   16  C   UNK N   1      41.932  36.963  50.601  0.00  0.00     0.014 A 
ENDROOT
BRANCH   4  17
HETATM   17  C   UNK N   1      42.567  34.727  48.343  0.00  0.00     0.137 C 
HETATM   18  C   UNK N   1      43.492  33.752  49.117  0.00  0.00     0.031 C 
HETATM   19  C   UNK N   1      43.391  32.353  48.528  0.00  0.00     0.032 C 
HETATM   20  C   UNK N   1      43.902  32.408  47.061  0.00  0.00     0.272 C 
HETATM   21  N   UNK N   1      43.476  33.637  46.320  0.00  0.00     0.092 N 
HETATM   22  C   UNK N   1      42.263  34.228  46.903  0.00  0.00     0.299 C 
BRANCH  21  23
HETATM   23  C   UNK N   1      43.300  33.369  44.880  0.00  0.00     0.302 C 
BRANCH  23  24
HETATM   24  C   UNK N   1      42.233  34.272  44.254  0.00  0.00     0.302 C 
BRANCH  24  25
HETATM   25  N   UNK N   1      41.095  33.453  43.758  0.00  0.00     0.096 N 
HETATM   26  C   UNK N   1      40.480  34.000  42.535  0.00  0.00     0.273 C 
HETATM   27  C   UNK N   1      41.422  33.869  41.310  0.00  0.00     0.036 C 
HETATM   28  C   UNK N   1      42.324  32.616  41.397  0.00  0.00     0.082 C 
HETATM   29  C   UNK N   1      41.604  31.509  42.162  0.00  0.00     0.269 C 
HETATM   30  F   UNK N   1      40.394  31.242  41.540  0.00  0.00    -0.204 F 
HETATM   31  F   UNK N   1      42.352  30.345  42.169  0.00  0.00    -0.204 F 
HETATM   32  C   UNK N   1      41.386  31.991  43.626  0.00  0.00     0.351 C 
ENDBRANCH  24  25
ENDBRANCH  23  24
ENDBRANCH  21  23
ENDBRANCH   4  17
BRANCH   1  33
HETATM   33  C   UNK N   1      37.726  34.372  49.288  0.00  0.00     0.272 C 
HETATM   34  O   UNK N   1      37.163  34.629  48.233  0.00  0.00    -0.266 OA
HETATM   35  N   UNK N   1      37.039  33.655  50.248  0.00  0.00    -0.343 N 
HETATM   36  C   UNK N   1      37.686  33.246  51.501  0.00  0.00     0.152 C 
HETATM   37  C   UNK N   1      35.712  33.130  49.887  0.00  0.00     0.152 C 
HETATM   38  C   UNK N   1      36.760  32.475  52.446  0.00  0.00     0.187 C 
HETATM   39  O   UNK N   1      35.955  31.571  51.719  0.00  0.00    -0.388 OA
HETATM   40  C   UNK N   1      35.019  32.352  51.007  0.00  0.00     0.187 C 
ENDBRANCH   1  33
TORSDOF 5
ENDMDL
MODEL 2
REMARK VINA RESULT:      -8.7      5.082      8.542
REMARK  5 active torsions:
REMARK  status: ('A' for Active; 'I' for Inactive)
REMARK    1  A    between atoms: C_2  and  C_3 
REMARK       I    between atoms: C_2  and  N_35 
REMARK    2  A    between atoms: N_6  and  C_7 
REMARK    3  A    between atoms: N_11  and  C_12 
REMARK    4  A    between atoms: C_12  and  C_13 
REMARK    5  A    between atoms: C_13  and  N_14 
ROOT
HETATM    1  C   UNK N   1      38.167  34.959  49.739  0.00  0.00     0.126 A 
HETATM    2  N   UNK N   1      37.604  35.972  50.423  0.00  0.00    -0.292 N 
ATOM      3  HN  UNK N   1      36.684  35.946  50.862  1.00  0.00     0.187 HD
HETATM    4  N   UNK N   1      38.433  37.009  50.438  0.00  0.00    -0.284 N 
HETATM    5  C   UNK N   1      39.559  36.693  49.733  0.00  0.00     0.072 A 
HETATM    6  C   UNK N   1      39.415  35.371  49.288  0.00  0.00     0.019 A 
HETATM    7  C   UNK N   1      40.429  34.529  48.554  0.00  0.00     0.189 C 
HETATM    8  S   UNK N   1      42.047  35.204  48.927  0.00  0.00     0.180 S 
HETATM    9  O   UNK N   1      42.592  34.564  50.214  0.00  0.00    -0.222 OA
HETATM   10  O   UNK N   1      43.086  34.777  47.879  0.00  0.00    -0.222 OA
HETATM   11  C   UNK N   1      42.003  36.960  49.120  0.00  0.00     0.072 A 
HETATM   12  C   UNK N   1      43.154  37.721  48.896  0.00  0.00     0.024 A 
HETATM   13  C   UNK N   1      43.101  39.107  49.001  0.00  0.00     0.002 A 
HETATM   14  C   UNK N   1      41.896  39.736  49.309  0.00  0.00     0.001 A 
HETATM   15  C   UNK N   1      40.742  38.979  49.540  0.00  0.00     0.015 A 
HETATM   16  C   UNK N   1      40.778  37.566  49.479  0.00  0.00     0.014 A 
ENDROOT
BRANCH   4  17
HETATM   17  C   UNK N   1      38.150  38.197  51.265  0.00  0.00     0.137 C 
HETATM   18  C   UNK N   1      36.662  38.623  51.165  0.00  0.00     0.031 C 
HETATM   19  C   UNK N   1      35.890  38.128  52.378  0.00  0.00     0.032 C 
HETATM   20  C   UNK N   1      36.481  38.814  53.640  0.00  0.00     0.272 C 
HETATM   21  N   UNK N   1      37.973  38.935  53.618  0.00  0.00     0.092 N 
HETATM   22  C   UNK N   1      38.585  37.932  52.734  0.00  0.00     0.299 C 
BRANCH  21  23
HETATM   23  C   UNK N   1      38.544  38.868  54.977  0.00  0.00     0.302 C 
BRANCH  23  24
HETATM   24  C   UNK N   1      40.075  38.804  54.953  0.00  0.00     0.302 C 
BRANCH  24  25
HETATM   25  N   UNK N   1      40.639  40.146  54.649  0.00  0.00     0.096 N 
HETATM   26  C   UNK N   1      41.411  40.714  55.768  0.00  0.00     0.273 C 
HETATM   27  C   UNK N   1      42.737  39.944  56.002  0.00  0.00     0.036 C 
HETATM   28  C   UNK N   1      43.319  39.369  54.690  0.00  0.00     0.082 C 
HETATM   29  C   UNK N   1      42.938  40.266  53.516  0.00  0.00     0.269 C 
HETATM   30  F   UNK N   1      43.384  41.554  53.766  0.00  0.00    -0.204 F 
HETATM   31  F   UNK N   1      43.529  39.825  52.344  0.00  0.00    -0.204 F 
HETATM   32  C   UNK N   1      41.390  40.231  53.357  0.00  0.00     0.351 C 
ENDBRANCH  24  25
ENDBRANCH  23  24
ENDBRANCH  21  23
ENDBRANCH   4  17
BRANCH   1  33
HETATM   33  C   UNK N   1      37.577  33.584  49.581  0.00  0.00     0.272 C 
HETATM   34  O   UNK N   1      37.686  32.810  50.523  0.00  0.00    -0.266 OA
HETATM   35  N   UNK N   1      36.876  33.171  48.463  0.00  0.00    -0.343 N 
HETATM   36  C   UNK N   1      36.642  34.081  47.335  0.00  0.00     0.152 C 
HETATM   37  C   UNK N   1      36.192  31.870  48.529  0.00  0.00     0.152 C 
HETATM   38  C   UNK N   1      35.862  33.439  46.183  0.00  0.00     0.187 C 
HETATM   39  O   UNK N   1      34.825  32.624  46.683  0.00  0.00    -0.388 OA
HETATM   40  C   UNK N   1      35.444  31.489  47.249  0.00  0.00     0.187 C 
ENDBRANCH   1  33
TORSDOF 5
ENDMDL
MODEL 3
REMARK VINA RESULT:      -8.4      1.554      2.057
REMARK  5 active torsions:
REMARK  status: ('A' for Active; 'I' for Inactive)
REMARK    1  A    between atoms: C_2  and  C_3 
REMARK       I    between atoms: C_2  and  N_35 
REMARK    2  A    between atoms: N_6  and  C_7 
REMARK    3  A    between atoms: N_11  and  C_12 
REMARK    4  A    between atoms: C_12  and  C_13 
REMARK    5  A    between atoms: C_13  and  N_14 
ROOT
HETATM    1  C   UNK N   1      38.605  34.567  49.448  0.00  0.00     0.126 A 
HETATM    2  N   UNK N   1      39.734  34.182  48.824  0.00  0.00    -0.292 N 
ATOM      3  HN  UNK N   1      39.822  33.366  48.219  1.00  0.00     0.187 HD
HETATM    4  N   UNK N   1      40.712  35.030  49.117  0.00  0.00    -0.284 N 
HETATM    5  C   UNK N   1      40.237  35.986  49.969  0.00  0.00     0.072 A 
HETATM    6  C   UNK N   1      38.877  35.716  50.182  0.00  0.00     0.019 A 
HETATM    7  C   UNK N   1      37.885  36.538  50.966  0.00  0.00     0.189 C 
HETATM    8  S   UNK N   1      38.508  38.218  51.008  0.00  0.00     0.180 S 
HETATM    9  O   UNK N   1      38.017  38.985  49.769  0.00  0.00    -0.222 OA
HETATM   10  O   UNK N   1      37.881  39.018  52.161  0.00  0.00    -0.222 OA
HETATM   11  C   UNK N   1      40.272  38.270  51.067  0.00  0.00     0.072 A 
HETATM   12  C   UNK N   1      40.926  39.377  51.613  0.00  0.00     0.024 A 
HETATM   13  C   UNK N   1      42.315  39.391  51.702  0.00  0.00     0.002 A 
HETATM   14  C   UNK N   1      43.050  38.289  51.265  0.00  0.00     0.001 A 
HETATM   15  C   UNK N   1      42.401  37.180  50.712  0.00  0.00     0.015 A 
HETATM   16  C   UNK N   1      40.993  37.159  50.573  0.00  0.00     0.014 A 
ENDROOT
BRANCH   4  17
HETATM   17  C   UNK N   1      42.016  34.954  48.431  0.00  0.00     0.137 C 
HETATM   18  C   UNK N   1      43.043  34.125  49.247  0.00  0.00     0.031 C 
HETATM   19  C   UNK N   1      43.149  32.717  48.683  0.00  0.00     0.032 C 
HETATM   20  C   UNK N   1      43.690  32.818  47.230  0.00  0.00     0.272 C 
HETATM   21  N   UNK N   1      43.122  33.965  46.454  0.00  0.00     0.092 N 
HETATM   22  C   UNK N   1      41.824  34.395  46.993  0.00  0.00     0.299 C 
BRANCH  21  23
HETATM   23  C   UNK N   1      43.026  33.654  45.015  0.00  0.00     0.302 C 
BRANCH  23  24
HETATM   24  C   UNK N   1      41.582  33.730  44.507  0.00  0.00     0.302 C 
BRANCH  24  25
HETATM   25  N   UNK N   1      41.561  34.164  43.085  0.00  0.00     0.096 N 
HETATM   26  C   UNK N   1      40.694  33.325  42.238  0.00  0.00     0.273 C 
HETATM   27  C   UNK N   1      39.194  33.528  42.572  0.00  0.00     0.036 C 
HETATM   28  C   UNK N   1      38.890  34.968  43.047  0.00  0.00     0.082 C 
HETATM   29  C   UNK N   1      39.855  35.947  42.385  0.00  0.00     0.269 C 
HETATM   30  F   UNK N   1      39.759  35.818  41.008  0.00  0.00    -0.204 F 
HETATM   31  F   UNK N   1      39.541  37.253  42.718  0.00  0.00    -0.204 F 
HETATM   32  C   UNK N   1      41.295  35.622  42.878  0.00  0.00     0.351 C 
ENDBRANCH  24  25
ENDBRANCH  23  24
ENDBRANCH  21  23
ENDBRANCH   4  17
BRANCH   1  33
HETATM   33  C   UNK N   1      37.259  33.914  49.290  0.00  0.00     0.272 C 
HETATM   34  O   UNK N   1      36.675  34.072  48.226  0.00  0.00    -0.266 OA
HETATM   35  N   UNK N   1      36.678  33.108  50.251  0.00  0.00    -0.343 N 
HETATM   36  C   UNK N   1      37.365  32.815  51.515  0.00  0.00     0.152 C 
HETATM   37  C   UNK N   1      35.452  32.383  49.882  0.00  0.00     0.152 C 
HETATM   38  C   UNK N   1      36.557  31.919  52.458  0.00  0.00     0.187 C 
HETATM   39  O   UNK N   1      35.910  30.897  51.732  0.00  0.00    -0.388 OA
HETATM   40  C   UNK N   1      34.873  31.517  51.003  0.00  0.00     0.187 C 
ENDBRANCH   1  33
TORSDOF 5
ENDMDL
MODEL 4
REMARK VINA RESULT:      -8.4      2.171      2.905
REMARK  5 active torsions:
REMARK  status: ('A' for Active; 'I' for Inactive)
REMARK    1  A    between atoms: C_2  and  C_3 
REMARK       I    between atoms: C_2  and  N_35 
REMARK    2  A    between atoms: N_6  and  C_7 
REMARK    3  A    between atoms: N_11  and  C_12 
REMARK    4  A    between atoms: C_12  and  C_13 
REMARK    5  A    between atoms: C_13  and  N_14 
ROOT
HETATM    1  C   UNK N   1      39.666  34.544  48.550  0.00  0.00     0.126 A 
HETATM    2  N   UNK N   1      40.620  33.911  47.842  0.00  0.00    -0.292 N 
ATOM      3  HN  UNK N   1      40.482  33.057  47.301  1.00  0.00     0.187 HD
HETATM    4  N   UNK N   1      41.767  34.570  47.956  0.00  0.00    -0.284 N 
HETATM    5  C   UNK N   1      41.583  35.650  48.772  0.00  0.00     0.072 A 
HETATM    6  C   UNK N   1      40.233  35.661  49.152  0.00  0.00     0.019 A 
HETATM    7  C   UNK N   1      39.513  36.706  49.967  0.00  0.00     0.189 C 
HETATM    8  S   UNK N   1      40.435  38.234  49.801  0.00  0.00     0.180 S 
HETATM    9  O   UNK N   1      39.947  39.003  48.563  0.00  0.00    -0.222 OA
HETATM   10  O   UNK N   1      40.112  39.208  50.945  0.00  0.00    -0.222 OA
HETATM   11  C   UNK N   1      42.173  37.947  49.665  0.00  0.00     0.072 A 
HETATM   12  C   UNK N   1      43.081  38.939  50.043  0.00  0.00     0.024 A 
HETATM   13  C   UNK N   1      44.449  38.690  49.980  0.00  0.00     0.002 A 
HETATM   14  C   UNK N   1      44.909  37.443  49.560  0.00  0.00     0.001 A 
HETATM   15  C   UNK N   1      44.004  36.447  49.175  0.00  0.00     0.015 A 
HETATM   16  C   UNK N   1      42.611  36.690  49.191  0.00  0.00     0.014 A 
ENDROOT
BRANCH   4  17
HETATM   17  C   UNK N   1      42.941  34.202  47.142  0.00  0.00     0.137 C 
HETATM   18  C   UNK N   1      43.983  33.406  47.971  0.00  0.00     0.031 C 
HETATM   19  C   UNK N   1      43.857  31.918  47.685  0.00  0.00     0.032 C 
HETATM   20  C   UNK N   1      44.186  31.684  46.184  0.00  0.00     0.272 C 
HETATM   21  N   UNK N   1      43.635  32.738  45.275  0.00  0.00     0.092 N 
HETATM   22  C   UNK N   1      42.482  33.423  45.877  0.00  0.00     0.299 C 
BRANCH  21  23
HETATM   23  C   UNK N   1      43.296  32.188  43.949  0.00  0.00     0.302 C 
BRANCH  23  24
HETATM   24  C   UNK N   1      41.849  32.498  43.551  0.00  0.00     0.302 C 
BRANCH  24  25
HETATM   25  N   UNK N   1      41.820  33.242  42.263  0.00  0.00     0.096 N 
HETATM   26  C   UNK N   1      40.772  32.762  41.345  0.00  0.00     0.273 C 
HETATM   27  C   UNK N   1      39.351  33.116  41.858  0.00  0.00     0.036 C 
HETATM   28  C   UNK N   1      39.330  34.440  42.657  0.00  0.00     0.082 C 
HETATM   29  C   UNK N   1      40.410  35.381  42.130  0.00  0.00     0.269 C 
HETATM   30  F   UNK N   1      40.211  35.584  40.773  0.00  0.00    -0.204 F 
HETATM   31  F   UNK N   1      40.347  36.610  42.764  0.00  0.00    -0.204 F 
HETATM   32  C   UNK N   1      41.798  34.732  42.401  0.00  0.00     0.351 C 
ENDBRANCH  24  25
ENDBRANCH  23  24
ENDBRANCH  21  23
ENDBRANCH   4  17
BRANCH   1  33
HETATM   33  C   UNK N   1      38.214  34.154  48.593  0.00  0.00     0.272 C 
HETATM   34  O   UNK N   1      37.596  34.389  49.623  0.00  0.00    -0.266 OA
HETATM   35  N   UNK N   1      37.533  33.602  47.524  0.00  0.00    -0.343 N 
HETATM   36  C   UNK N   1      38.199  33.372  46.236  0.00  0.00     0.152 C 
HETATM   37  C   UNK N   1      36.075  33.453  47.649  0.00  0.00     0.152 C 
HETATM   38  C   UNK N   1      37.288  32.739  45.181  0.00  0.00     0.187 C 
HETATM   39  O   UNK N   1      35.998  33.308  45.237  0.00  0.00    -0.388 OA
HETATM   40  C   UNK N   1      35.401  32.832  46.423  0.00  0.00     0.187 C 
ENDBRANCH   1  33
TORSDOF 5
ENDMDL
MODEL 5
REMARK VINA RESULT:      -8.3      5.994      9.565
REMARK  5 active torsions:
REMARK  status: ('A' for Active; 'I' for Inactive)
REMARK    1  A    between atoms: C_2  and  C_3 
REMARK       I    between atoms: C_2  and  N_35 
REMARK    2  A    between atoms: N_6  and  C_7 
REMARK    3  A    between atoms: N_11  and  C_12 
REMARK    4  A    between atoms: C_12  and  C_13 
REMARK    5  A    between atoms: C_13  and  N_14 
ROOT
HETATM    1  C   UNK N   1      40.094  38.883  51.965  0.00  0.00     0.126 A 
HETATM    2  N   UNK N   1      39.756  39.146  53.241  0.00  0.00    -0.292 N 
ATOM      3  HN  UNK N   1      38.802  39.214  53.595  1.00  0.00     0.187 HD
HETATM    4  N   UNK N   1      40.856  39.301  53.967  0.00  0.00    -0.284 N 
HETATM    5  C   UNK N   1      41.949  39.163  53.160  0.00  0.00     0.072 A 
HETATM    6  C   UNK N   1      41.481  38.877  51.869  0.00  0.00     0.019 A 
HETATM    7  C   UNK N   1      42.296  38.541  50.645  0.00  0.00     0.189 C 
HETATM    8  S   UNK N   1      43.868  37.900  51.217  0.00  0.00     0.180 S 
HETATM    9  O   UNK N   1      43.760  36.383  51.441  0.00  0.00    -0.222 OA
HETATM   10  O   UNK N   1      44.943  37.996  50.122  0.00  0.00    -0.222 OA
HETATM   11  C   UNK N   1      44.396  38.676  52.714  0.00  0.00     0.072 A 
HETATM   12  C   UNK N   1      45.753  38.724  53.041  0.00  0.00     0.024 A 
HETATM   13  C   UNK N   1      46.167  39.380  54.196  0.00  0.00     0.002 A 
HETATM   14  C   UNK N   1      45.227  40.006  55.014  0.00  0.00     0.001 A 
HETATM   15  C   UNK N   1      43.866  39.956  54.695  0.00  0.00     0.015 A 
HETATM   16  C   UNK N   1      43.416  39.261  53.548  0.00  0.00     0.014 A 
ENDROOT
BRANCH   4  17
HETATM   17  C   UNK N   1      40.788  39.424  55.436  0.00  0.00     0.137 C 
HETATM   18  C   UNK N   1      40.001  40.688  55.868  0.00  0.00     0.031 C 
HETATM   19  C   UNK N   1      38.581  40.313  56.265  0.00  0.00     0.032 C 
HETATM   20  C   UNK N   1      38.657  39.373  57.500  0.00  0.00     0.272 C 
HETATM   21  N   UNK N   1      39.773  38.378  57.433  0.00  0.00     0.092 N 
HETATM   22  C   UNK N   1      40.190  38.125  56.046  0.00  0.00     0.299 C 
BRANCH  21  23
HETATM   23  C   UNK N   1      39.424  37.122  58.123  0.00  0.00     0.302 C 
BRANCH  23  24
HETATM   24  C   UNK N   1      37.985  37.138  58.650  0.00  0.00     0.302 C 
BRANCH  24  25
HETATM   25  N   UNK N   1      37.280  35.891  58.250  0.00  0.00     0.096 N 
HETATM   26  C   UNK N   1      35.859  36.111  57.925  0.00  0.00     0.273 C 
HETATM   27  C   UNK N   1      35.688  36.915  56.609  0.00  0.00     0.036 C 
HETATM   28  C   UNK N   1      36.824  36.631  55.598  0.00  0.00     0.082 C 
HETATM   29  C   UNK N   1      37.335  35.204  55.779  0.00  0.00     0.269 C 
HETATM   30  F   UNK N   1      36.275  34.322  55.637  0.00  0.00    -0.204 F 
HETATM   31  F   UNK N   1      38.285  34.895  54.821  0.00  0.00    -0.204 F 
HETATM   32  C   UNK N   1      37.973  35.090  57.193  0.00  0.00     0.351 C 
ENDBRANCH  24  25
ENDBRANCH  23  24
ENDBRANCH  21  23
ENDBRANCH   4  17
BRANCH   1  33
HETATM   33  C   UNK N   1      39.127  38.555  50.860  0.00  0.00     0.272 C 
HETATM   34  O   UNK N   1      38.985  39.383  49.970  0.00  0.00    -0.266 OA
HETATM   35  N   UNK N   1      38.441  37.359  50.768  0.00  0.00    -0.343 N 
HETATM   36  C   UNK N   1      38.632  36.295  51.762  0.00  0.00     0.152 C 
HETATM   37  C   UNK N   1      37.681  37.102  49.534  0.00  0.00     0.152 C 
HETATM   38  C   UNK N   1      37.774  35.053  51.501  0.00  0.00     0.187 C 
HETATM   39  O   UNK N   1      37.740  34.758  50.122  0.00  0.00    -0.388 OA
HETATM   40  C   UNK N   1      36.950  35.758  49.517  0.00  0.00     0.187 C 
ENDBRANCH   1  33
TORSDOF 5
ENDMDL
MODEL 6
REMARK VINA RESULT:      -8.3      1.664      2.384
REMARK  5 active torsions:
REMARK  status: ('A' for Active; 'I' for Inactive)
REMARK    1  A    between atoms: C_2  and  C_3 
REMARK       I    between atoms: C_2  and  N_35 
REMARK    2  A    between atoms: N_6  and  C_7 
REMARK    3  A    between atoms: N_11  and  C_12 
REMARK    4  A    between atoms: C_12  and  C_13 
REMARK    5  A    between atoms: C_13  and  N_14 
ROOT
HETATM    1  C   UNK N   1      38.603  34.516  48.769  0.00  0.00     0.126 A 
HETATM    2  N   UNK N   1      39.804  34.100  48.324  0.00  0.00    -0.292 N 
ATOM      3  HN  UNK N   1      39.963  33.277  47.744  1.00  0.00     0.187 HD
HETATM    4  N   UNK N   1      40.747  34.928  48.757  0.00  0.00    -0.284 N 
HETATM    5  C   UNK N   1      40.171  35.901  49.523  0.00  0.00     0.072 A 
HETATM    6  C   UNK N   1      38.789  35.664  49.530  0.00  0.00     0.019 A 
HETATM    7  C   UNK N   1      37.710  36.515  50.151  0.00  0.00     0.189 C 
HETATM    8  S   UNK N   1      38.359  38.181  50.278  0.00  0.00     0.180 S 
HETATM    9  O   UNK N   1      38.078  38.948  48.976  0.00  0.00    -0.222 OA
HETATM   10  O   UNK N   1      37.584  39.004  51.320  0.00  0.00    -0.222 OA
HETATM   11  C   UNK N   1      40.095  38.193  50.602  0.00  0.00     0.072 A 
HETATM   12  C   UNK N   1      40.685  39.290  51.235  0.00  0.00     0.024 A 
HETATM   13  C   UNK N   1      42.045  39.273  51.532  0.00  0.00     0.002 A 
HETATM   14  C   UNK N   1      42.811  38.152  51.217  0.00  0.00     0.001 A 
HETATM   15  C   UNK N   1      42.226  37.052  50.578  0.00  0.00     0.015 A 
HETATM   16  C   UNK N   1      40.856  37.062  50.229  0.00  0.00     0.014 A 
ENDROOT
BRANCH   4  17
HETATM   17  C   UNK N   1      42.137  34.816  48.276  0.00  0.00     0.137 C 
HETATM   18  C   UNK N   1      43.019  34.005  49.261  0.00  0.00     0.031 C 
HETATM   19  C   UNK N   1      43.187  32.578  48.763  0.00  0.00     0.032 C 
HETATM   20  C   UNK N   1      43.939  32.626  47.404  0.00  0.00     0.272 C 
HETATM   21  N   UNK N   1      43.510  33.753  46.517  0.00  0.00     0.092 N 
HETATM   22  C   UNK N   1      42.152  34.212  46.844  0.00  0.00     0.299 C 
BRANCH  21  23
HETATM   23  C   UNK N   1      43.624  33.395  45.090  0.00  0.00     0.302 C 
BRANCH  23  24
HETATM   24  C   UNK N   1      42.677  34.221  44.214  0.00  0.00     0.302 C 
BRANCH  24  25
HETATM   25  N   UNK N   1      41.467  33.426  43.875  0.00  0.00     0.096 N 
HETATM   26  C   UNK N   1      40.700  33.992  42.751  0.00  0.00     0.273 C 
HETATM   27  C   UNK N   1      41.463  33.853  41.407  0.00  0.00     0.036 C 
HETATM   28  C   UNK N   1      42.345  32.583  41.364  0.00  0.00     0.082 C 
HETATM   29  C   UNK N   1      41.717  31.484  42.216  0.00  0.00     0.269 C 
HETATM   30  F   UNK N   1      40.429  31.243  41.765  0.00  0.00    -0.204 F 
HETATM   31  F   UNK N   1      42.438  30.307  42.115  0.00  0.00    -0.204 F 
HETATM   32  C   UNK N   1      41.710  31.959  43.698  0.00  0.00     0.351 C 
ENDBRANCH  24  25
ENDBRANCH  23  24
ENDBRANCH  21  23
ENDBRANCH   4  17
BRANCH   1  33
HETATM   33  C   UNK N   1      37.281  33.892  48.413  0.00  0.00     0.272 C 
HETATM   34  O   UNK N   1      36.399  33.917  49.261  0.00  0.00    -0.266 OA
HETATM   35  N   UNK N   1      36.996  33.349  47.175  0.00  0.00    -0.343 N 
HETATM   36  C   UNK N   1      37.986  33.363  46.092  0.00  0.00     0.152 C 
HETATM   37  C   UNK N   1      35.604  32.952  46.910  0.00  0.00     0.152 C 
HETATM   38  C   UNK N   1      37.493  32.701  44.802  0.00  0.00     0.187 C 
HETATM   39  O   UNK N   1      36.146  33.043  44.556  0.00  0.00    -0.388 OA
HETATM   40  C   UNK N   1      35.376  32.357  45.519  0.00  0.00     0.187 C 
ENDBRANCH   1  33
TORSDOF 5
ENDMDL
MODEL 7
REMARK VINA RESULT:      -7.8      3.029      6.524
REMARK  5 active torsions:
REMARK  status: ('A' for Active; 'I' for Inactive)
REMARK    1  A    between atoms: C_2  and  C_3 
REMARK       I    between atoms: C_2  and  N_35 
REMARK    2  A    between atoms: N_6  and  C_7 
REMARK    3  A    between atoms: N_11  and  C_12 
REMARK    4  A    between atoms: C_12  and  C_13 
REMARK    5  A    between atoms: C_13  and  N_14 
ROOT
HETATM    1  C   UNK N   1      39.481  38.821  52.954  0.00  0.00     0.126 A 
HETATM    2  N   UNK N   1      40.138  38.777  51.780  0.00  0.00    -0.292 N 
ATOM      3  HN  UNK N   1      40.924  39.373  51.523  1.00  0.00     0.187 HD
HETATM    4  N   UNK N   1      39.605  37.836  51.010  0.00  0.00    -0.284 N 
HETATM    5  C   UNK N   1      38.558  37.257  51.670  0.00  0.00     0.072 A 
HETATM    6  C   UNK N   1      38.472  37.866  52.930  0.00  0.00     0.019 A 
HETATM    7  C   UNK N   1      37.545  37.508  54.065  0.00  0.00     0.189 C 
HETATM    8  S   UNK N   1      37.059  35.799  53.833  0.00  0.00     0.180 S 
HETATM    9  O   UNK N   1      38.083  34.872  54.506  0.00  0.00    -0.222 OA
HETATM   10  O   UNK N   1      35.766  35.477  54.599  0.00  0.00    -0.222 OA
HETATM   11  C   UNK N   1      36.922  35.376  52.123  0.00  0.00     0.072 A 
HETATM   12  C   UNK N   1      36.091  34.326  51.723  0.00  0.00     0.024 A 
HETATM   13  C   UNK N   1      35.949  34.030  50.370  0.00  0.00     0.002 A 
HETATM   14  C   UNK N   1      36.620  34.794  49.417  0.00  0.00     0.001 A 
HETATM   15  C   UNK N   1      37.458  35.843  49.813  0.00  0.00     0.015 A 
HETATM   16  C   UNK N   1      37.651  36.138  51.182  0.00  0.00     0.014 A 
ENDROOT
BRANCH   4  17
HETATM   17  C   UNK N   1      40.237  37.447  49.735  0.00  0.00     0.137 C 
HETATM   18  C   UNK N   1      41.029  38.624  49.107  0.00  0.00     0.031 C 
HETATM   19  C   UNK N   1      42.515  38.470  49.394  0.00  0.00     0.032 C 
HETATM   20  C   UNK N   1      43.007  37.166  48.709  0.00  0.00     0.272 C 
HETATM   21  N   UNK N   1      42.037  36.030  48.807  0.00  0.00     0.092 N 
HETATM   22  C   UNK N   1      41.128  36.191  49.951  0.00  0.00     0.299 C 
BRANCH  21  23
HETATM   23  C   UNK N   1      42.729  34.727  48.854  0.00  0.00     0.302 C 
BRANCH  23  24
HETATM   24  C   UNK N   1      42.471  33.895  47.594  0.00  0.00     0.302 C 
BRANCH  24  25
HETATM   25  N   UNK N   1      43.620  34.015  46.657  0.00  0.00     0.096 N 
HETATM   26  C   UNK N   1      44.888  33.535  47.235  0.00  0.00     0.273 C 
HETATM   27  C   UNK N   1      44.890  31.995  47.420  0.00  0.00     0.036 C 
HETATM   28  C   UNK N   1      44.047  31.275  46.341  0.00  0.00     0.082 C 
HETATM   29  C   UNK N   1      44.075  32.075  45.041  0.00  0.00     0.269 C 
HETATM   30  F   UNK N   1      45.392  32.251  44.646  0.00  0.00    -0.204 F 
HETATM   31  F   UNK N   1      43.409  31.401  44.032  0.00  0.00    -0.204 F 
HETATM   32  C   UNK N   1      43.380  33.443  45.295  0.00  0.00     0.351 C 
ENDBRANCH  24  25
ENDBRANCH  23  24
ENDBRANCH  21  23
ENDBRANCH   4  17
BRANCH   1  33
HETATM   33  C   UNK N   1      39.848  39.694  54.123  0.00  0.00     0.272 C 
HETATM   34  O   UNK N   1      38.936  40.232  54.735  0.00  0.00    -0.266 OA
HETATM   35  N   UNK N   1      41.143  39.873  54.571  0.00  0.00    -0.343 N 
HETATM   36  C   UNK N   1      42.272  39.190  53.928  0.00  0.00     0.152 C 
HETATM   37  C   UNK N   1      41.332  40.596  55.839  0.00  0.00     0.152 C 
HETATM   38  C   UNK N   1      43.629  39.527  54.553  0.00  0.00     0.187 C 
HETATM   39  O   UNK N   1      43.523  39.583  55.960  0.00  0.00    -0.388 OA
HETATM   40  C   UNK N   1      42.794  40.754  56.260  0.00  0.00     0.187 C 
ENDBRANCH   1  33
TORSDOF 5
ENDMDL
MODEL 8
REMARK VINA RESULT:      -7.6      5.963      9.104
REMARK  5 active torsions:
REMARK  status: ('A' for Active; 'I' for Inactive)
REMARK    1  A    between atoms: C_2  and  C_3 
REMARK       I    between atoms: C_2  and  N_35 
REMARK    2  A    between atoms: N_6  and  C_7 
REMARK    3  A    between atoms: N_11  and  C_12 
REMARK    4  A    between atoms: C_12  and  C_13 
REMARK    5  A    between atoms: C_13  and  N_14 
ROOT
HETATM    1  C   UNK N   1      38.530  38.670  53.116  0.00  0.00     0.126 A 
HETATM    2  N   UNK N   1      39.580  38.743  52.277  0.00  0.00    -0.292 N 
ATOM      3  HN  UNK N   1      40.300  39.465  52.296  1.00  0.00     0.187 HD
HETATM    4  N   UNK N   1      39.533  37.728  51.422  0.00  0.00    -0.284 N 
HETATM    5  C   UNK N   1      38.421  36.978  51.677  0.00  0.00     0.072 A 
HETATM    6  C   UNK N   1      37.769  37.558  52.776  0.00  0.00     0.019 A 
HETATM    7  C   UNK N   1      36.552  37.044  53.503  0.00  0.00     0.189 C 
HETATM    8  S   UNK N   1      36.467  35.278  53.209  0.00  0.00     0.180 S 
HETATM    9  O   UNK N   1      37.294  34.535  54.271  0.00  0.00    -0.222 OA
HETATM   10  O   UNK N   1      35.049  34.739  53.457  0.00  0.00    -0.222 OA
HETATM   11  C   UNK N   1      37.054  34.845  51.601  0.00  0.00     0.072 A 
HETATM   12  C   UNK N   1      36.614  33.672  50.983  0.00  0.00     0.024 A 
HETATM   13  C   UNK N   1      37.041  33.361  49.696  0.00  0.00     0.002 A 
HETATM   14  C   UNK N   1      37.892  34.232  49.017  0.00  0.00     0.001 A 
HETATM   15  C   UNK N   1      38.342  35.405  49.633  0.00  0.00     0.015 A 
HETATM   16  C   UNK N   1      37.954  35.724  50.955  0.00  0.00     0.014 A 
ENDROOT
BRANCH   4  17
HETATM   17  C   UNK N   1      40.653  37.457  50.500  0.00  0.00     0.137 C 
HETATM   18  C   UNK N   1      40.637  38.417  49.283  0.00  0.00     0.031 C 
HETATM   19  C   UNK N   1      41.642  39.541  49.486  0.00  0.00     0.032 C 
HETATM   20  C   UNK N   1      43.061  38.913  49.558  0.00  0.00     0.272 C 
HETATM   21  N   UNK N   1      43.113  37.626  50.322  0.00  0.00     0.092 N 
HETATM   22  C   UNK N   1      41.999  37.517  51.276  0.00  0.00     0.299 C 
BRANCH  21  23
HETATM   23  C   UNK N   1      44.412  37.446  50.996  0.00  0.00     0.302 C 
BRANCH  23  24
HETATM   24  C   UNK N   1      44.814  38.681  51.808  0.00  0.00     0.302 C 
BRANCH  24  25
HETATM   25  N   UNK N   1      44.784  38.372  53.262  0.00  0.00     0.096 N 
HETATM   26  C   UNK N   1      46.099  38.519  53.911  0.00  0.00     0.273 C 
HETATM   27  C   UNK N   1      46.537  40.004  53.992  0.00  0.00     0.036 C 
HETATM   28  C   UNK N   1      45.333  40.963  54.141  0.00  0.00     0.082 C 
HETATM   29  C   UNK N   1      44.204  40.265  54.894  0.00  0.00     0.269 C 
HETATM   30  F   UNK N   1      44.680  39.827  56.120  0.00  0.00    -0.204 F 
HETATM   31  F   UNK N   1      43.152  41.134  55.125  0.00  0.00    -0.204 F 
HETATM   32  C   UNK N   1      43.705  39.071  54.029  0.00  0.00     0.351 C 
ENDBRANCH  24  25
ENDBRANCH  23  24
ENDBRANCH  21  23
ENDBRANCH   4  17
BRANCH   1  33
HETATM   33  C   UNK N   1      38.286  39.588  54.283  0.00  0.00     0.272 C 
HETATM   34  O   UNK N   1      37.612  40.590  54.083  0.00  0.00    -0.266 OA
HETATM   35  N   UNK N   1      38.730  39.334  55.567  0.00  0.00    -0.343 N 
HETATM   36  C   UNK N   1      39.474  38.109  55.886  0.00  0.00     0.152 C 
HETATM   37  C   UNK N   1      38.253  40.219  56.641  0.00  0.00     0.152 C 
HETATM   38  C   UNK N   1      39.896  38.014  57.355  0.00  0.00     0.187 C 
HETATM   39  O   UNK N   1      38.859  38.471  58.197  0.00  0.00    -0.388 OA
HETATM   40  C   UNK N   1      38.795  39.870  58.029  0.00  0.00     0.187 C 
ENDBRANCH   1  33
TORSDOF 5
ENDMDL
MODEL 9
REMARK VINA RESULT:      -7.6      5.310      7.765
REMARK  5 active torsions:
REMARK  status: ('A' for Active; 'I' for Inactive)
REMARK    1  A    between atoms: C_2  and  C_3 
REMARK       I    between atoms: C_2  and  N_35 
REMARK    2  A    between atoms: N_6  and  C_7 
REMARK    3  A    between atoms: N_11  and  C_12 
REMARK    4  A    between atoms: C_12  and  C_13 
REMARK    5  A    between atoms: C_13  and  N_14 
ROOT
HETATM    1  C   UNK N   1      37.253  36.564  53.744  0.00  0.00     0.126 A 
HETATM    2  N   UNK N   1      38.445  37.186  53.803  0.00  0.00    -0.292 N 
ATOM      3  HN  UNK N   1      39.344  36.757  53.587  1.00  0.00     0.187 HD
HETATM    4  N   UNK N   1      38.268  38.446  54.184  0.00  0.00    -0.284 N 
HETATM    5  C   UNK N   1      36.938  38.664  54.406  0.00  0.00     0.072 A 
HETATM    6  C   UNK N   1      36.264  37.469  54.113  0.00  0.00     0.019 A 
HETATM    7  C   UNK N   1      34.776  37.227  54.106  0.00  0.00     0.189 C 
HETATM    8  S   UNK N   1      33.983  38.815  53.859  0.00  0.00     0.180 S 
HETATM    9  O   UNK N   1      33.845  39.098  52.354  0.00  0.00    -0.222 OA
HETATM   10  O   UNK N   1      32.519  38.787  54.325  0.00  0.00    -0.222 OA
HETATM   11  C   UNK N   1      34.882  40.130  54.621  0.00  0.00     0.072 A 
HETATM   12  C   UNK N   1      34.225  41.304  55.000  0.00  0.00     0.024 A 
HETATM   13  C   UNK N   1      34.929  42.316  55.646  0.00  0.00     0.002 A 
HETATM   14  C   UNK N   1      36.283  42.148  55.932  0.00  0.00     0.001 A 
HETATM   15  C   UNK N   1      36.947  40.977  55.549  0.00  0.00     0.015 A 
HETATM   16  C   UNK N   1      36.264  39.951  54.856  0.00  0.00     0.014 A 
ENDROOT
BRANCH   4  17
HETATM   17  C   UNK N   1      39.383  39.411  54.163  0.00  0.00     0.137 C 
HETATM   18  C   UNK N   1      40.017  39.582  55.568  0.00  0.00     0.031 C 
HETATM   19  C   UNK N   1      41.295  38.764  55.671  0.00  0.00     0.032 C 
HETATM   20  C   UNK N   1      42.311  39.322  54.636  0.00  0.00     0.272 C 
HETATM   21  N   UNK N   1      41.691  39.704  53.328  0.00  0.00     0.092 N 
HETATM   22  C   UNK N   1      40.430  38.984  53.096  0.00  0.00     0.299 C 
BRANCH  21  23
HETATM   23  C   UNK N   1      42.629  39.512  52.205  0.00  0.00     0.302 C 
BRANCH  23  24
HETATM   24  C   UNK N   1      41.905  39.116  50.915  0.00  0.00     0.302 C 
BRANCH  24  25
HETATM   25  N   UNK N   1      42.414  37.807  50.423  0.00  0.00     0.096 N 
HETATM   26  C   UNK N   1      42.306  37.658  48.961  0.00  0.00     0.273 C 
HETATM   27  C   UNK N   1      43.291  38.594  48.213  0.00  0.00     0.036 C 
HETATM   28  C   UNK N   1      44.592  38.833  49.013  0.00  0.00     0.082 C 
HETATM   29  C   UNK N   1      44.910  37.607  49.865  0.00  0.00     0.269 C 
HETATM   30  F   UNK N   1      44.996  36.494  49.044  0.00  0.00    -0.204 F 
HETATM   31  F   UNK N   1      46.122  37.759  50.516  0.00  0.00    -0.204 F 
HETATM   32  C   UNK N   1      43.777  37.439  50.919  0.00  0.00     0.351 C 
ENDBRANCH  24  25
ENDBRANCH  23  24
ENDBRANCH  21  23
ENDBRANCH   4  17
BRANCH   1  33
HETATM   33  C   UNK N   1      37.031  35.156  53.264  0.00  0.00     0.272 C 
HETATM   34  O   UNK N   1      36.565  35.008  52.142  0.00  0.00    -0.266 OA
HETATM   35  N   UNK N   1      37.374  34.032  53.991  0.00  0.00    -0.343 N 
HETATM   36  C   UNK N   1      38.012  34.145  55.309  0.00  0.00     0.152 C 
HETATM   37  C   UNK N   1      37.279  32.728  53.317  0.00  0.00     0.152 C 
HETATM   38  C   UNK N   1      38.302  32.793  55.967  0.00  0.00     0.187 C 
HETATM   39  O   UNK N   1      38.776  31.870  55.010  0.00  0.00    -0.388 OA
HETATM   40  C   UNK N   1      37.674  31.538  54.194  0.00  0.00     0.187 C 
ENDBRANCH   1  33
TORSDOF 5
ENDMDL
