MODEL 1
REMARK VINA RESULT:      -9.2      0.000      0.000
REMARK  5 active torsions:
REMARK  status: ('A' for Active; 'I' for Inactive)
REMARK    1  A    between atoms: C_2  and  C_3 
REMARK       I    between atoms: C_2  and  N_31 
REMARK    2  A    between atoms: N_6  and  C_7 
REMARK    3  A    between atoms: N_9  and  C_10 
REMARK    4  A    between atoms: C_10  and  C_11 
REMARK    5  A    between atoms: C_11  and  N_12 
ROOT
HETATM    1  C   UNK N   1      40.417  38.460  50.075  0.00  0.00     0.126 A 
HETATM    2  N   UNK N   1      40.989  37.422  49.443  0.00  0.00    -0.292 N 
ATOM      3  HN  UNK N   1      40.556  36.875  48.700  1.00  0.00     0.187 HD
HETATM    4  N   UNK N   1      42.201  37.218  49.933  0.00  0.00    -0.282 N 
HETATM    5  C   UNK N   1      42.459  38.152  50.894  0.00  0.00     0.072 A 
HETATM    6  C   UNK N   1      41.304  38.942  51.029  0.00  0.00     0.019 A 
HETATM    7  C   UNK N   1      41.050  40.068  51.996  0.00  0.00     0.189 C 
HETATM    8  S   UNK N   1      42.238  39.905  53.339  0.00  0.00     0.180 S 
HETATM    9  O   UNK N   1      42.494  41.249  54.039  0.00  0.00    -0.222 OA
HETATM   10  O   UNK N   1      41.614  39.071  54.469  0.00  0.00    -0.222 OA
HETATM   11  C   UNK N   1      43.750  39.133  52.845  0.00  0.00     0.072 A 
HETATM   12  C   UNK N   1      44.920  39.325  53.591  0.00  0.00     0.024 A 
HETATM   13  C   UNK N   1      46.116  38.747  53.172  0.00  0.00     0.002 A 
HETATM   14  C   UNK N   1      46.147  37.986  52.006  0.00  0.00     0.001 A 
HETATM   15  C   UNK N   1      44.981  37.783  51.265  0.00  0.00     0.015 A 
HETATM   16  C   UNK N   1      43.748  38.338  51.679  0.00  0.00     0.014 A 
ENDROOT
BRANCH   4  17
HETATM   17  C   UNK N   1      43.028  36.092  49.468  0.00  0.00     0.165 A 
HETATM   18  C   UNK N   1      42.678  34.784  50.171  0.00  0.00     0.301 A 
HETATM   19  N   UNK N   1      42.230  34.136  48.935  0.00  0.00     0.094 N 
HETATM   20  C   UNK N   1      42.491  35.388  48.216  0.00  0.00     0.301 A 
BRANCH  19  21
HETATM   21  C   UNK N   1      43.121  33.043  48.502  0.00  0.00     0.302 C 
BRANCH  21  22
HETATM   22  C   UNK N   1      42.952  32.775  46.994  0.00  0.00     0.302 C 
BRANCH  22  23
HETATM   23  N   UNK N   1      44.099  32.029  46.430  0.00  0.00     0.094 N 
HETATM   24  C   UNK N   1      45.143  31.759  47.446  0.00  0.00     0.298 C 
HETATM   25  C   UNK N   1      46.299  32.769  47.347  0.00  0.00     0.198 C 
HETATM   26  O   UNK N   1      46.948  32.764  46.080  0.00  0.00    -0.388 OA
HETATM   27  C   UNK N   1      46.123  32.321  45.009  0.00  0.00     0.198 C 
HETATM   28  C   UNK N   1      44.642  32.676  45.212  0.00  0.00     0.298 C 
ENDBRANCH  22  23
ENDBRANCH  21  22
ENDBRANCH  19  21
ENDBRANCH   4  17
BRANCH   1  29
HETATM   29  C   UNK N   1      39.092  39.032  49.680  0.00  0.00     0.272 C 
HETATM   30  O   UNK N   1      39.079  39.849  48.770  0.00  0.00    -0.266 OA
HETATM   31  N   UNK N   1      37.895  38.585  50.209  0.00  0.00    -0.343 N 
HETATM   32  C   UNK N   1      37.798  37.815  51.447  0.00  0.00     0.152 C 
HETATM   33  C   UNK N   1      36.625  38.882  49.557  0.00  0.00     0.152 C 
HETATM   34  C   UNK N   1      36.774  38.513  52.356  0.00  0.00     0.187 C 
HETATM   35  O   UNK N   1      35.525  38.634  51.700  0.00  0.00    -0.388 OA
HETATM   36  C   UNK N   1      35.658  39.489  50.576  0.00  0.00     0.187 C 
ENDBRANCH   1  29
TORSDOF 5
ENDMDL
MODEL 2
REMARK VINA RESULT:      -8.9      1.834      2.245
REMARK  5 active torsions:
REMARK  status: ('A' for Active; 'I' for Inactive)
REMARK    1  A    between atoms: C_2  and  C_3 
REMARK       I    between atoms: C_2  and  N_31 
REMARK    2  A    between atoms: N_6  and  C_7 
REMARK    3  A    between atoms: N_9  and  C_10 
REMARK    4  A    between atoms: C_10  and  C_11 
REMARK    5  A    between atoms: C_11  and  N_12 
ROOT
HETATM    1  C   UNK N   1      40.511  38.257  50.744  0.00  0.00     0.126 A 
HETATM    2  N   UNK N   1      41.109  37.259  50.074  0.00  0.00    -0.292 N 
ATOM      3  HN  UNK N   1      40.665  36.682  49.359  1.00  0.00     0.187 HD
HETATM    4  N   UNK N   1      42.362  37.139  50.481  0.00  0.00    -0.282 N 
HETATM    5  C   UNK N   1      42.619  38.090  51.425  0.00  0.00     0.072 A 
HETATM    6  C   UNK N   1      41.424  38.800  51.638  0.00  0.00     0.019 A 
HETATM    7  C   UNK N   1      41.158  39.909  52.622  0.00  0.00     0.189 C 
HETATM    8  S   UNK N   1      42.441  39.831  53.884  0.00  0.00     0.180 S 
HETATM    9  O   UNK N   1      42.652  41.190  54.567  0.00  0.00    -0.222 OA
HETATM   10  O   UNK N   1      41.952  38.958  55.050  0.00  0.00    -0.222 OA
HETATM   11  C   UNK N   1      43.966  39.162  53.289  0.00  0.00     0.072 A 
HETATM   12  C   UNK N   1      45.167  39.435  53.955  0.00  0.00     0.024 A 
HETATM   13  C   UNK N   1      46.369  38.939  53.456  0.00  0.00     0.002 A 
HETATM   14  C   UNK N   1      46.375  38.179  52.290  0.00  0.00     0.001 A 
HETATM   15  C   UNK N   1      45.179  37.895  51.627  0.00  0.00     0.015 A 
HETATM   16  C   UNK N   1      43.942  38.366  52.123  0.00  0.00     0.014 A 
ENDROOT
BRANCH   4  17
HETATM   17  C   UNK N   1      43.230  36.071  49.960  0.00  0.00     0.165 A 
HETATM   18  C   UNK N   1      42.455  34.800  49.629  0.00  0.00     0.301 A 
HETATM   19  N   UNK N   1      42.765  34.877  48.198  0.00  0.00     0.094 N 
HETATM   20  C   UNK N   1      43.475  36.137  48.448  0.00  0.00     0.301 A 
BRANCH  19  21
HETATM   21  C   UNK N   1      43.671  33.803  47.747  0.00  0.00     0.302 C 
BRANCH  21  22
HETATM   22  C   UNK N   1      43.120  33.131  46.475  0.00  0.00     0.302 C 
BRANCH  22  23
HETATM   23  N   UNK N   1      42.148  33.994  45.767  0.00  0.00     0.094 N 
HETATM   24  C   UNK N   1      40.840  33.326  45.580  0.00  0.00     0.298 C 
HETATM   25  C   UNK N   1      40.704  32.739  44.166  0.00  0.00     0.198 C 
HETATM   26  O   UNK N   1      40.817  33.715  43.135  0.00  0.00    -0.388 OA
HETATM   27  C   UNK N   1      41.577  34.860  43.503  0.00  0.00     0.198 C 
HETATM   28  C   UNK N   1      42.699  34.534  44.500  0.00  0.00     0.298 C 
ENDBRANCH  22  23
ENDBRANCH  21  22
ENDBRANCH  19  21
ENDBRANCH   4  17
BRANCH   1  29
HETATM   29  C   UNK N   1      39.126  38.737  50.439  0.00  0.00     0.272 C 
HETATM   30  O   UNK N   1      38.993  39.527  49.515  0.00  0.00    -0.266 OA
HETATM   31  N   UNK N   1      38.003  38.232  51.068  0.00  0.00    -0.343 N 
HETATM   32  C   UNK N   1      38.047  37.491  52.326  0.00  0.00     0.152 C 
HETATM   33  C   UNK N   1      36.671  38.434  50.509  0.00  0.00     0.152 C 
HETATM   34  C   UNK N   1      37.053  38.150  53.296  0.00  0.00     0.187 C 
HETATM   35  O   UNK N   1      35.753  38.177  52.734  0.00  0.00    -0.388 OA
HETATM   36  C   UNK N   1      35.747  39.008  51.585  0.00  0.00     0.187 C 
ENDBRANCH   1  29
TORSDOF 5
ENDMDL
MODEL 3
REMARK VINA RESULT:      -8.9      3.140      3.970
REMARK  5 active torsions:
REMARK  status: ('A' for Active; 'I' for Inactive)
REMARK    1  A    between atoms: C_2  and  C_3 
REMARK       I    between atoms: C_2  and  N_31 
REMARK    2  A    between atoms: N_6  and  C_7 
REMARK    3  A    between atoms: N_9  and  C_10 
REMARK    4  A    between atoms: C_10  and  C_11 
REMARK    5  A    between atoms: C_11  and  N_12 
ROOT
HETATM    1  C   UNK N   1      42.187  38.892  52.473  0.00  0.00     0.126 A 
HETATM    2  N   UNK N   1      42.021  37.872  51.616  0.00  0.00    -0.292 N 
ATOM      3  HN  UNK N   1      41.122  37.484  51.331  1.00  0.00     0.187 HD
HETATM    4  N   UNK N   1      43.202  37.448  51.197  0.00  0.00    -0.282 N 
HETATM    5  C   UNK N   1      44.180  38.213  51.762  0.00  0.00     0.072 A 
HETATM    6  C   UNK N   1      43.548  39.130  52.621  0.00  0.00     0.019 A 
HETATM    7  C   UNK N   1      44.182  40.153  53.526  0.00  0.00     0.189 C 
HETATM    8  S   UNK N   1      45.899  39.668  53.770  0.00  0.00     0.180 S 
HETATM    9  O   UNK N   1      46.782  40.869  54.140  0.00  0.00    -0.222 OA
HETATM   10  O   UNK N   1      46.003  38.794  55.029  0.00  0.00    -0.222 OA
HETATM   11  C   UNK N   1      46.570  38.765  52.407  0.00  0.00     0.072 A 
HETATM   12  C   UNK N   1      47.956  38.705  52.211  0.00  0.00     0.024 A 
HETATM   13  C   UNK N   1      48.475  38.026  51.111  0.00  0.00     0.002 A 
HETATM   14  C   UNK N   1      47.614  37.416  50.203  0.00  0.00     0.001 A 
HETATM   15  C   UNK N   1      46.232  37.465  50.399  0.00  0.00     0.015 A 
HETATM   16  C   UNK N   1      45.678  38.126  51.519  0.00  0.00     0.014 A 
ENDROOT
BRANCH   4  17
HETATM   17  C   UNK N   1      43.316  36.286  50.300  0.00  0.00     0.165 A 
HETATM   18  C   UNK N   1      42.123  35.342  50.416  0.00  0.00     0.301 A 
HETATM   19  N   UNK N   1      41.698  35.565  49.031  0.00  0.00     0.094 N 
HETATM   20  C   UNK N   1      42.793  36.530  48.879  0.00  0.00     0.301 A 
BRANCH  19  21
HETATM   21  C   UNK N   1      41.875  34.377  48.175  0.00  0.00     0.302 C 
BRANCH  21  22
HETATM   22  C   UNK N   1      40.698  34.241  47.190  0.00  0.00     0.302 C 
BRANCH  22  23
HETATM   23  N   UNK N   1      41.085  33.518  45.959  0.00  0.00     0.094 N 
HETATM   24  C   UNK N   1      42.460  33.854  45.522  0.00  0.00     0.298 C 
HETATM   25  C   UNK N   1      42.452  34.901  44.396  0.00  0.00     0.198 C 
HETATM   26  O   UNK N   1      41.745  34.478  43.234  0.00  0.00    -0.388 OA
HETATM   27  C   UNK N   1      40.733  33.511  43.493  0.00  0.00     0.198 C 
HETATM   28  C   UNK N   1      40.086  33.684  44.876  0.00  0.00     0.298 C 
ENDBRANCH  22  23
ENDBRANCH  21  22
ENDBRANCH  19  21
ENDBRANCH   4  17
BRANCH   1  29
HETATM   29  C   UNK N   1      41.049  39.683  53.039  0.00  0.00     0.272 C 
HETATM   30  O   UNK N   1      40.476  40.463  52.292  0.00  0.00    -0.266 OA
HETATM   31  N   UNK N   1      40.552  39.473  54.312  0.00  0.00    -0.343 N 
HETATM   32  C   UNK N   1      41.287  38.768  55.359  0.00  0.00     0.152 C 
HETATM   33  C   UNK N   1      39.239  39.976  54.702  0.00  0.00     0.152 C 
HETATM   34  C   UNK N   1      41.303  39.664  56.608  0.00  0.00     0.187 C 
HETATM   35  O   UNK N   1      39.983  39.989  57.006  0.00  0.00    -0.388 OA
HETATM   36  C   UNK N   1      39.363  40.775  56.001  0.00  0.00     0.187 C 
ENDBRANCH   1  29
TORSDOF 5
ENDMDL
MODEL 4
REMARK VINA RESULT:      -8.3      3.723      8.267
REMARK  5 active torsions:
REMARK  status: ('A' for Active; 'I' for Inactive)
REMARK    1  A    between atoms: C_2  and  C_3 
REMARK       I    between atoms: C_2  and  N_31 
REMARK    2  A    between atoms: N_6  and  C_7 
REMARK    3  A    between atoms: N_9  and  C_10 
REMARK    4  A    between atoms: C_10  and  C_11 
REMARK    5  A    between atoms: C_11  and  N_12 
ROOT
HETATM    1  C   UNK N   1      41.120  37.544  50.764  0.00  0.00     0.126 A 
HETATM    2  N   UNK N   1      40.782  38.304  51.819  0.00  0.00    -0.292 N 
ATOM      3  HN  UNK N   1      39.828  38.521  52.105  1.00  0.00     0.187 HD
HETATM    4  N   UNK N   1      41.877  38.727  52.430  0.00  0.00    -0.282 N 
HETATM    5  C   UNK N   1      42.971  38.221  51.790  0.00  0.00     0.072 A 
HETATM    6  C   UNK N   1      42.506  37.484  50.687  0.00  0.00     0.019 A 
HETATM    7  C   UNK N   1      43.310  36.778  49.627  0.00  0.00     0.189 C 
HETATM    8  S   UNK N   1      44.971  37.473  49.658  0.00  0.00     0.180 S 
HETATM    9  O   UNK N   1      46.010  36.491  49.097  0.00  0.00    -0.222 OA
HETATM   10  O   UNK N   1      45.053  38.633  48.654  0.00  0.00    -0.222 OA
HETATM   11  C   UNK N   1      45.446  38.078  51.250  0.00  0.00     0.072 A 
HETATM   12  C   UNK N   1      46.800  38.224  51.578  0.00  0.00     0.024 A 
HETATM   13  C   UNK N   1      47.166  38.663  52.848  0.00  0.00     0.002 A 
HETATM   14  C   UNK N   1      46.184  38.946  53.793  0.00  0.00     0.001 A 
HETATM   15  C   UNK N   1      44.832  38.812  53.469  0.00  0.00     0.015 A 
HETATM   16  C   UNK N   1      44.431  38.392  52.180  0.00  0.00     0.014 A 
ENDROOT
BRANCH   4  17
HETATM   17  C   UNK N   1      41.799  39.640  53.581  0.00  0.00     0.165 A 
HETATM   18  C   UNK N   1      40.413  40.259  53.740  0.00  0.00     0.301 A 
HETATM   19  N   UNK N   1      40.181  39.623  55.040  0.00  0.00     0.094 N 
HETATM   20  C   UNK N   1      41.480  38.953  54.914  0.00  0.00     0.301 A 
BRANCH  19  21
HETATM   21  C   UNK N   1      40.152  40.588  56.156  0.00  0.00     0.302 C 
BRANCH  21  22
HETATM   22  C   UNK N   1      38.945  40.316  57.073  0.00  0.00     0.302 C 
BRANCH  22  23
HETATM   23  N   UNK N   1      37.975  41.433  57.061  0.00  0.00     0.094 N 
HETATM   24  C   UNK N   1      37.085  41.387  55.878  0.00  0.00     0.298 C 
HETATM   25  C   UNK N   1      37.561  42.350  54.778  0.00  0.00     0.198 C 
HETATM   26  O   UNK N   1      37.613  43.710  55.199  0.00  0.00    -0.388 OA
HETATM   27  C   UNK N   1      37.797  43.874  56.601  0.00  0.00     0.198 C 
HETATM   28  C   UNK N   1      38.636  42.750  57.227  0.00  0.00     0.298 C 
ENDBRANCH  22  23
ENDBRANCH  21  22
ENDBRANCH  19  21
ENDBRANCH   4  17
BRANCH   1  29
HETATM   29  C   UNK N   1      40.120  36.808  49.929  0.00  0.00     0.272 C 
HETATM   30  O   UNK N   1      40.308  36.774  48.721  0.00  0.00    -0.266 OA
HETATM   31  N   UNK N   1      39.083  36.075  50.476  0.00  0.00    -0.343 N 
HETATM   32  C   UNK N   1      38.617  36.237  51.851  0.00  0.00     0.152 C 
HETATM   33  C   UNK N   1      38.361  35.083  49.685  0.00  0.00     0.152 C 
HETATM   34  C   UNK N   1      37.095  36.454  51.810  0.00  0.00     0.187 C 
HETATM   35  O   UNK N   1      36.455  35.376  51.150  0.00  0.00    -0.388 OA
HETATM   36  C   UNK N   1      36.857  35.344  49.790  0.00  0.00     0.187 C 
ENDBRANCH   1  29
TORSDOF 5
ENDMDL
MODEL 5
REMARK VINA RESULT:      -8.2      4.129      8.438
REMARK  5 active torsions:
REMARK  status: ('A' for Active; 'I' for Inactive)
REMARK    1  A    between atoms: C_2  and  C_3 
REMARK       I    between atoms: C_2  and  N_31 
REMARK    2  A    between atoms: N_6  and  C_7 
REMARK    3  A    between atoms: N_9  and  C_10 
REMARK    4  A    between atoms: C_10  and  C_11 
REMARK    5  A    between atoms: C_11  and  N_12 
ROOT
HETATM    1  C   UNK N   1      39.406  38.430  51.658  0.00  0.00     0.126 A 
HETATM    2  N   UNK N   1      39.778  39.101  52.760  0.00  0.00    -0.292 N 
ATOM      3  HN  UNK N   1      39.141  39.487  53.455  1.00  0.00     0.187 HD
HETATM    4  N   UNK N   1      41.098  39.184  52.804  0.00  0.00    -0.282 N 
HETATM    5  C   UNK N   1      41.625  38.534  51.726  0.00  0.00     0.072 A 
HETATM    6  C   UNK N   1      40.547  38.071  50.951  0.00  0.00     0.019 A 
HETATM    7  C   UNK N   1      40.588  37.348  49.630  0.00  0.00     0.189 C 
HETATM    8  S   UNK N   1      42.209  37.643  48.903  0.00  0.00     0.180 S 
HETATM    9  O   UNK N   1      42.599  36.535  47.914  0.00  0.00    -0.222 OA
HETATM   10  O   UNK N   1      42.138  38.876  47.990  0.00  0.00    -0.222 OA
HETATM   11  C   UNK N   1      43.476  37.912  50.107  0.00  0.00     0.072 A 
HETATM   12  C   UNK N   1      44.821  37.707  49.777  0.00  0.00     0.024 A 
HETATM   13  C   UNK N   1      45.810  37.882  50.743  0.00  0.00     0.002 A 
HETATM   14  C   UNK N   1      45.457  38.252  52.037  0.00  0.00     0.001 A 
HETATM   15  C   UNK N   1      44.118  38.468  52.369  0.00  0.00     0.015 A 
HETATM   16  C   UNK N   1      43.095  38.321  51.403  0.00  0.00     0.014 A 
ENDROOT
BRANCH   4  17
HETATM   17  C   UNK N   1      41.775  39.933  53.875  0.00  0.00     0.165 A 
HETATM   18  C   UNK N   1      40.791  40.606  54.827  0.00  0.00     0.301 A 
HETATM   19  N   UNK N   1      41.226  39.812  55.980  0.00  0.00     0.094 N 
HETATM   20  C   UNK N   1      42.150  39.089  55.098  0.00  0.00     0.301 A 
BRANCH  19  21
HETATM   21  C   UNK N   1      41.932  40.613  56.997  0.00  0.00     0.302 C 
BRANCH  21  22
HETATM   22  C   UNK N   1      41.468  40.219  58.412  0.00  0.00     0.302 C 
BRANCH  22  23
HETATM   23  N   UNK N   1      40.366  41.080  58.896  0.00  0.00     0.094 N 
HETATM   24  C   UNK N   1      39.067  40.369  58.912  0.00  0.00     0.298 C 
HETATM   25  C   UNK N   1      38.222  40.712  57.674  0.00  0.00     0.198 C 
HETATM   26  O   UNK N   1      37.928  42.101  57.557  0.00  0.00    -0.388 OA
HETATM   27  C   UNK N   1      38.879  42.949  58.189  0.00  0.00     0.198 C 
HETATM   28  C   UNK N   1      40.302  42.369  58.166  0.00  0.00     0.298 C 
ENDBRANCH  22  23
ENDBRANCH  21  22
ENDBRANCH  19  21
ENDBRANCH   4  17
BRANCH   1  29
HETATM   29  C   UNK N   1      37.988  38.053  51.366  0.00  0.00     0.272 C 
HETATM   30  O   UNK N   1      37.329  38.820  50.678  0.00  0.00    -0.266 OA
HETATM   31  N   UNK N   1      37.446  36.834  51.734  0.00  0.00    -0.343 N 
HETATM   32  C   UNK N   1      38.034  35.963  52.747  0.00  0.00     0.152 C 
HETATM   33  C   UNK N   1      36.212  36.345  51.129  0.00  0.00     0.152 C 
HETATM   34  C   UNK N   1      36.935  35.612  53.762  0.00  0.00     0.187 C 
HETATM   35  O   UNK N   1      35.830  35.010  53.113  0.00  0.00    -0.388 OA
HETATM   36  C   UNK N   1      35.228  35.944  52.231  0.00  0.00     0.187 C 
ENDBRANCH   1  29
TORSDOF 5
ENDMDL
MODEL 6
REMARK VINA RESULT:      -8.1      4.187      8.267
REMARK  5 active torsions:
REMARK  status: ('A' for Active; 'I' for Inactive)
REMARK    1  A    between atoms: C_2  and  C_3 
REMARK       I    between atoms: C_2  and  N_31 
REMARK    2  A    between atoms: N_6  and  C_7 
REMARK    3  A    between atoms: N_9  and  C_10 
REMARK    4  A    between atoms: C_10  and  C_11 
REMARK    5  A    between atoms: C_11  and  N_12 
ROOT
HETATM    1  C   UNK N   1      41.108  37.532  50.750  0.00  0.00     0.126 A 
HETATM    2  N   UNK N   1      40.771  38.305  51.796  0.00  0.00    -0.292 N 
ATOM      3  HN  UNK N   1      39.818  38.526  52.080  1.00  0.00     0.187 HD
HETATM    4  N   UNK N   1      41.867  38.733  52.402  0.00  0.00    -0.282 N 
HETATM    5  C   UNK N   1      42.960  38.218  51.767  0.00  0.00     0.072 A 
HETATM    6  C   UNK N   1      42.493  37.470  50.673  0.00  0.00     0.019 A 
HETATM    7  C   UNK N   1      43.297  36.751  49.621  0.00  0.00     0.189 C 
HETATM    8  S   UNK N   1      44.958  37.444  49.643  0.00  0.00     0.180 S 
HETATM    9  O   UNK N   1      45.996  36.455  49.093  0.00  0.00    -0.222 OA
HETATM   10  O   UNK N   1      45.042  38.593  48.626  0.00  0.00    -0.222 OA
HETATM   11  C   UNK N   1      45.434  38.067  51.228  0.00  0.00     0.072 A 
HETATM   12  C   UNK N   1      46.788  38.215  51.554  0.00  0.00     0.024 A 
HETATM   13  C   UNK N   1      47.156  38.667  52.819  0.00  0.00     0.002 A 
HETATM   14  C   UNK N   1      46.175  38.962  53.761  0.00  0.00     0.001 A 
HETATM   15  C   UNK N   1      44.823  38.826  53.439  0.00  0.00     0.015 A 
HETATM   16  C   UNK N   1      44.420  38.392  52.154  0.00  0.00     0.014 A 
ENDROOT
BRANCH   4  17
HETATM   17  C   UNK N   1      41.790  39.660  53.542  0.00  0.00     0.165 A 
HETATM   18  C   UNK N   1      40.403  40.276  53.699  0.00  0.00     0.301 A 
HETATM   19  N   UNK N   1      40.177  39.655  55.007  0.00  0.00     0.094 N 
HETATM   20  C   UNK N   1      41.478  38.987  54.884  0.00  0.00     0.301 A 
BRANCH  19  21
HETATM   21  C   UNK N   1      40.150  40.632  56.112  0.00  0.00     0.302 C 
BRANCH  21  22
HETATM   22  C   UNK N   1      39.007  40.307  57.092  0.00  0.00     0.302 C 
BRANCH  22  23
HETATM   23  N   UNK N   1      39.472  40.271  58.497  0.00  0.00     0.094 N 
HETATM   24  C   UNK N   1      40.515  39.242  58.713  0.00  0.00     0.298 C 
HETATM   25  C   UNK N   1      39.924  37.961  59.324  0.00  0.00     0.198 C 
HETATM   26  O   UNK N   1      39.290  38.174  60.581  0.00  0.00    -0.388 OA
HETATM   27  C   UNK N   1      38.804  39.498  60.768  0.00  0.00     0.198 C 
HETATM   28  C   UNK N   1      38.348  40.154  59.456  0.00  0.00     0.298 C 
ENDBRANCH  22  23
ENDBRANCH  21  22
ENDBRANCH  19  21
ENDBRANCH   4  17
BRANCH   1  29
HETATM   29  C   UNK N   1      40.106  36.788  49.924  0.00  0.00     0.272 C 
HETATM   30  O   UNK N   1      40.299  36.732  48.717  0.00  0.00    -0.266 OA
HETATM   31  N   UNK N   1      39.062  36.072  50.479  0.00  0.00    -0.343 N 
HETATM   32  C   UNK N   1      38.590  36.262  51.848  0.00  0.00     0.152 C 
HETATM   33  C   UNK N   1      38.337  35.072  49.702  0.00  0.00     0.152 C 
HETATM   34  C   UNK N   1      37.071  36.489  51.796  0.00  0.00     0.187 C 
HETATM   35  O   UNK N   1      36.427  35.404  51.153  0.00  0.00    -0.388 OA
HETATM   36  C   UNK N   1      36.834  35.344  49.795  0.00  0.00     0.187 C 
ENDBRANCH   1  29
TORSDOF 5
ENDMDL
MODEL 7
REMARK VINA RESULT:      -8.0      3.415      6.245
REMARK  5 active torsions:
REMARK  status: ('A' for Active; 'I' for Inactive)
REMARK    1  A    between atoms: C_2  and  C_3 
REMARK       I    between atoms: C_2  and  N_31 
REMARK    2  A    between atoms: N_6  and  C_7 
REMARK    3  A    between atoms: N_9  and  C_10 
REMARK    4  A    between atoms: C_10  and  C_11 
REMARK    5  A    between atoms: C_11  and  N_12 
ROOT
HETATM    1  C   UNK N   1      37.808  36.166  52.929  0.00  0.00     0.126 A 
HETATM    2  N   UNK N   1      38.800  36.089  52.027  0.00  0.00    -0.292 N 
ATOM      3  HN  UNK N   1      39.611  35.475  52.097  1.00  0.00     0.187 HD
HETATM    4  N   UNK N   1      38.563  36.930  51.034  0.00  0.00    -0.282 N 
HETATM    5  C   UNK N   1      37.377  37.567  51.259  0.00  0.00     0.072 A 
HETATM    6  C   UNK N   1      36.890  37.116  52.499  0.00  0.00     0.019 A 
HETATM    7  C   UNK N   1      35.650  37.555  53.232  0.00  0.00     0.189 C 
HETATM    8  S   UNK N   1      35.158  39.149  52.554  0.00  0.00     0.180 S 
HETATM    9  O   UNK N   1      33.659  39.415  52.756  0.00  0.00    -0.222 OA
HETATM   10  O   UNK N   1      35.797  40.272  53.387  0.00  0.00    -0.222 OA
HETATM   11  C   UNK N   1      35.634  39.367  50.865  0.00  0.00     0.072 A 
HETATM   12  C   UNK N   1      34.971  40.300  50.058  0.00  0.00     0.024 A 
HETATM   13  C   UNK N   1      35.325  40.437  48.717  0.00  0.00     0.002 A 
HETATM   14  C   UNK N   1      36.331  39.638  48.181  0.00  0.00     0.001 A 
HETATM   15  C   UNK N   1      37.002  38.714  48.984  0.00  0.00     0.015 A 
HETATM   16  C   UNK N   1      36.680  38.570  50.354  0.00  0.00     0.014 A 
ENDROOT
BRANCH   4  17
HETATM   17  C   UNK N   1      39.531  37.102  49.938  0.00  0.00     0.165 A 
HETATM   18  C   UNK N   1      40.964  37.233  50.443  0.00  0.00     0.301 A 
HETATM   19  N   UNK N   1      41.403  35.999  49.785  0.00  0.00     0.094 N 
HETATM   20  C   UNK N   1      40.027  35.789  49.321  0.00  0.00     0.301 A 
BRANCH  19  21
HETATM   21  C   UNK N   1      42.340  36.242  48.671  0.00  0.00     0.302 C 
BRANCH  21  22
HETATM   22  C   UNK N   1      43.401  35.127  48.606  0.00  0.00     0.302 C 
BRANCH  22  23
HETATM   23  N   UNK N   1      42.875  33.895  47.978  0.00  0.00     0.094 N 
HETATM   24  C   UNK N   1      43.255  32.678  48.732  0.00  0.00     0.298 C 
HETATM   25  C   UNK N   1      44.466  31.977  48.096  0.00  0.00     0.198 C 
HETATM   26  O   UNK N   1      44.242  31.571  46.749  0.00  0.00    -0.388 OA
HETATM   27  C   UNK N   1      43.262  32.346  46.067  0.00  0.00     0.198 C 
HETATM   28  C   UNK N   1      43.225  33.807  46.540  0.00  0.00     0.298 C 
ENDBRANCH  22  23
ENDBRANCH  21  22
ENDBRANCH  19  21
ENDBRANCH   4  17
BRANCH   1  29
HETATM   29  C   UNK N   1      37.705  35.259  54.115  0.00  0.00     0.272 C 
HETATM   30  O   UNK N   1      38.120  35.679  55.186  0.00  0.00    -0.266 OA
HETATM   31  N   UNK N   1      37.056  34.038  54.070  0.00  0.00    -0.343 N 
HETATM   32  C   UNK N   1      36.749  33.334  52.828  0.00  0.00     0.152 C 
HETATM   33  C   UNK N   1      36.648  33.356  55.292  0.00  0.00     0.152 C 
HETATM   34  C   UNK N   1      37.288  31.899  52.955  0.00  0.00     0.187 C 
HETATM   35  O   UNK N   1      36.731  31.257  54.088  0.00  0.00    -0.388 OA
HETATM   36  C   UNK N   1      37.163  31.915  55.268  0.00  0.00     0.187 C 
ENDBRANCH   1  29
TORSDOF 5
ENDMDL
MODEL 8
REMARK VINA RESULT:      -7.9      3.632      6.824
REMARK  5 active torsions:
REMARK  status: ('A' for Active; 'I' for Inactive)
REMARK    1  A    between atoms: C_2  and  C_3 
REMARK       I    between atoms: C_2  and  N_31 
REMARK    2  A    between atoms: N_6  and  C_7 
REMARK    3  A    between atoms: N_9  and  C_10 
REMARK    4  A    between atoms: C_10  and  C_11 
REMARK    5  A    between atoms: C_11  and  N_12 
ROOT
HETATM    1  C   UNK N   1      37.701  36.135  52.821  0.00  0.00     0.126 A 
HETATM    2  N   UNK N   1      38.656  35.972  51.891  0.00  0.00    -0.292 N 
ATOM      3  HN  UNK N   1      39.427  35.308  51.950  1.00  0.00     0.187 HD
HETATM    4  N   UNK N   1      38.442  36.805  50.885  0.00  0.00    -0.282 N 
HETATM    5  C   UNK N   1      37.308  37.523  51.131  0.00  0.00     0.072 A 
HETATM    6  C   UNK N   1      36.833  37.133  52.395  0.00  0.00     0.019 A 
HETATM    7  C   UNK N   1      35.648  37.668  53.155  0.00  0.00     0.189 C 
HETATM    8  S   UNK N   1      35.239  39.276  52.454  0.00  0.00     0.180 S 
HETATM    9  O   UNK N   1      33.767  39.644  52.694  0.00  0.00    -0.222 OA
HETATM   10  O   UNK N   1      35.975  40.372  53.238  0.00  0.00    -0.222 OA
HETATM   11  C   UNK N   1      35.673  39.424  50.746  0.00  0.00     0.072 A 
HETATM   12  C   UNK N   1      35.047  40.380  49.937  0.00  0.00     0.024 A 
HETATM   13  C   UNK N   1      35.365  40.463  48.583  0.00  0.00     0.002 A 
HETATM   14  C   UNK N   1      36.300  39.588  48.036  0.00  0.00     0.001 A 
HETATM   15  C   UNK N   1      36.935  38.640  48.841  0.00  0.00     0.015 A 
HETATM   16  C   UNK N   1      36.649  38.549  50.223  0.00  0.00     0.014 A 
ENDROOT
BRANCH   4  17
HETATM   17  C   UNK N   1      39.383  36.888  49.757  0.00  0.00     0.165 A 
HETATM   18  C   UNK N   1      40.618  37.721  50.088  0.00  0.00     0.301 A 
HETATM   19  N   UNK N   1      41.533  36.586  49.940  0.00  0.00     0.094 N 
HETATM   20  C   UNK N   1      40.376  35.723  49.673  0.00  0.00     0.301 A 
BRANCH  19  21
HETATM   21  C   UNK N   1      42.422  36.711  48.769  0.00  0.00     0.302 C 
BRANCH  21  22
HETATM   22  C   UNK N   1      43.892  36.520  49.184  0.00  0.00     0.302 C 
BRANCH  22  23
HETATM   23  N   UNK N   1      44.432  37.708  49.883  0.00  0.00     0.094 N 
HETATM   24  C   UNK N   1      45.723  38.153  49.310  0.00  0.00     0.298 C 
HETATM   25  C   UNK N   1      46.913  37.651  50.145  0.00  0.00     0.198 C 
HETATM   26  O   UNK N   1      46.886  38.101  51.495  0.00  0.00    -0.388 OA
HETATM   27  C   UNK N   1      45.582  38.399  51.981  0.00  0.00     0.198 C 
HETATM   28  C   UNK N   1      44.496  37.513  51.351  0.00  0.00     0.298 C 
ENDBRANCH  22  23
ENDBRANCH  21  22
ENDBRANCH  19  21
ENDBRANCH   4  17
BRANCH   1  29
HETATM   29  C   UNK N   1      37.577  35.263  54.031  0.00  0.00     0.272 C 
HETATM   30  O   UNK N   1      37.065  34.162  53.884  0.00  0.00    -0.266 OA
HETATM   31  N   UNK N   1      38.123  35.601  55.256  0.00  0.00    -0.343 N 
HETATM   32  C   UNK N   1      38.526  36.958  55.613  0.00  0.00     0.152 C 
HETATM   33  C   UNK N   1      38.314  34.598  56.298  0.00  0.00     0.152 C 
HETATM   34  C   UNK N   1      37.859  37.310  56.952  0.00  0.00     0.187 C 
HETATM   35  O   UNK N   1      38.211  36.367  57.948  0.00  0.00    -0.388 OA
HETATM   36  C   UNK N   1      37.689  35.094  57.604  0.00  0.00     0.187 C 
ENDBRANCH   1  29
TORSDOF 5
ENDMDL
MODEL 9
REMARK VINA RESULT:      -7.7      3.432      6.180
REMARK  5 active torsions:
REMARK  status: ('A' for Active; 'I' for Inactive)
REMARK    1  A    between atoms: C_2  and  C_3 
REMARK       I    between atoms: C_2  and  N_31 
REMARK    2  A    between atoms: N_6  and  C_7 
REMARK    3  A    between atoms: N_9  and  C_10 
REMARK    4  A    between atoms: C_10  and  C_11 
REMARK    5  A    between atoms: C_11  and  N_12 
ROOT
HETATM    1  C   UNK N   1      37.674  36.193  52.920  0.00  0.00     0.126 A 
HETATM    2  N   UNK N   1      38.605  35.961  51.981  0.00  0.00    -0.292 N 
ATOM      3  HN  UNK N   1      39.352  35.271  52.053  1.00  0.00     0.187 HD
HETATM    4  N   UNK N   1      38.404  36.763  50.948  0.00  0.00    -0.282 N 
HETATM    5  C   UNK N   1      37.302  37.532  51.186  0.00  0.00     0.072 A 
HETATM    6  C   UNK N   1      36.836  37.207  52.472  0.00  0.00     0.019 A 
HETATM    7  C   UNK N   1      35.686  37.814  53.232  0.00  0.00     0.189 C 
HETATM    8  S   UNK N   1      35.323  39.409  52.477  0.00  0.00     0.180 S 
HETATM    9  O   UNK N   1      33.871  39.841  52.729  0.00  0.00    -0.222 OA
HETATM   10  O   UNK N   1      36.114  40.506  53.207  0.00  0.00    -0.222 OA
HETATM   11  C   UNK N   1      35.731  39.477  50.758  0.00  0.00     0.072 A 
HETATM   12  C   UNK N   1      35.125  40.425  49.924  0.00  0.00     0.024 A 
HETATM   13  C   UNK N   1      35.421  40.446  48.563  0.00  0.00     0.002 A 
HETATM   14  C   UNK N   1      36.313  39.517  48.033  0.00  0.00     0.001 A 
HETATM   15  C   UNK N   1      36.927  38.576  48.862  0.00  0.00     0.015 A 
HETATM   16  C   UNK N   1      36.664  38.547  50.251  0.00  0.00     0.014 A 
ENDROOT
BRANCH   4  17
HETATM   17  C   UNK N   1      39.326  36.769  49.801  0.00  0.00     0.165 A 
HETATM   18  C   UNK N   1      40.788  36.835  50.230  0.00  0.00     0.301 A 
HETATM   19  N   UNK N   1      41.107  35.521  49.666  0.00  0.00     0.094 N 
HETATM   20  C   UNK N   1      39.698  35.375  49.282  0.00  0.00     0.301 A 
BRANCH  19  21
HETATM   21  C   UNK N   1      42.002  35.598  48.496  0.00  0.00     0.302 C 
BRANCH  21  22
HETATM   22  C   UNK N   1      42.948  34.383  48.459  0.00  0.00     0.302 C 
BRANCH  22  23
HETATM   23  N   UNK N   1      42.500  33.358  47.491  0.00  0.00     0.094 N 
HETATM   24  C   UNK N   1      43.624  32.532  46.992  0.00  0.00     0.298 C 
HETATM   25  C   UNK N   1      44.107  33.011  45.613  0.00  0.00     0.198 C 
HETATM   26  O   UNK N   1      43.093  32.972  44.614  0.00  0.00    -0.388 OA
HETATM   27  C   UNK N   1      41.770  33.077  45.126  0.00  0.00     0.198 C 
HETATM   28  C   UNK N   1      41.690  33.941  46.394  0.00  0.00     0.298 C 
ENDBRANCH  22  23
ENDBRANCH  21  22
ENDBRANCH  19  21
ENDBRANCH   4  17
BRANCH   1  29
HETATM   29  C   UNK N   1      37.541  35.373  54.165  0.00  0.00     0.272 C 
HETATM   30  O   UNK N   1      36.965  34.297  54.073  0.00  0.00    -0.266 OA
HETATM   31  N   UNK N   1      38.142  35.722  55.360  0.00  0.00    -0.343 N 
HETATM   32  C   UNK N   1      38.630  37.066  55.655  0.00  0.00     0.152 C 
HETATM   33  C   UNK N   1      38.311  34.747  56.432  0.00  0.00     0.152 C 
HETATM   34  C   UNK N   1      38.026  37.502  57.000  0.00  0.00     0.187 C 
HETATM   35  O   UNK N   1      38.357  36.575  58.019  0.00  0.00    -0.388 OA
HETATM   36  C   UNK N   1      37.755  35.322  57.737  0.00  0.00     0.187 C 
ENDBRANCH   1  29
TORSDOF 5
ENDMDL
