MODEL 1
REMARK VINA RESULT:      -8.5      0.000      0.000
REMARK  6 active torsions:
REMARK  status: ('A' for Active; 'I' for Inactive)
REMARK    1  A    between atoms: O_2  and  C_3 
REMARK    2  A    between atoms: N_6  and  C_7 
REMARK    3  A    between atoms: C_7  and  C_8 
REMARK    4  A    between atoms: C_8  and  N_9 
REMARK    5  A    between atoms: C_13  and  N_14 
REMARK    6  A    between atoms: C_17  and  C_18 
REMARK       I    between atoms: C_18  and  N_20 
ROOT
HETATM    1  N   UNK N   1      41.546  34.641  48.216  0.00  0.00    -0.284 N 
HETATM    2  N   UNK N   1      40.340  34.099  48.165  0.00  0.00    -0.292 N 
ATOM      3  HN  UNK N   1      40.096  33.276  47.614  1.00  0.00     0.187 HD
HETATM    4  C   UNK N   1      39.486  34.783  48.938  0.00  0.00     0.126 A 
HETATM    5  C   UNK N   1      40.172  35.857  49.501  0.00  0.00     0.019 A 
HETATM    6  C   UNK N   1      41.504  35.729  49.053  0.00  0.00     0.072 A 
HETATM    7  C   UNK N   1      42.605  36.732  49.378  0.00  0.00     0.014 A 
HETATM    8  C   UNK N   1      43.975  36.412  49.338  0.00  0.00     0.015 A 
HETATM    9  C   UNK N   1      44.952  37.367  49.630  0.00  0.00     0.001 A 
HETATM   10  C   UNK N   1      44.586  38.664  49.974  0.00  0.00     0.002 A 
HETATM   11  C   UNK N   1      43.237  39.006  50.047  0.00  0.00     0.024 A 
HETATM   12  C   UNK N   1      42.257  38.048  49.763  0.00  0.00     0.072 A 
HETATM   13  S   UNK N   1      40.537  38.448  49.904  0.00  0.00     0.180 S 
HETATM   14  O   UNK N   1      40.310  39.584  50.912  0.00  0.00    -0.222 OA
HETATM   15  O   UNK N   1      40.026  39.044  48.582  0.00  0.00    -0.222 OA
HETATM   16  C   UNK N   1      39.615  36.973  50.350  0.00  0.00     0.189 C 
ENDROOT
BRANCH   1  17
HETATM   17  C   UNK N   1      42.570  34.126  47.286  0.00  0.00     0.137 C 
HETATM   18  C   UNK N   1      42.992  32.671  47.527  0.00  0.00     0.031 C 
HETATM   19  C   UNK N   1      44.261  32.338  46.712  0.00  0.00     0.032 C 
HETATM   20  C   UNK N   1      44.416  33.228  45.450  0.00  0.00     0.272 C 
HETATM   21  N   UNK N   1      43.116  33.620  44.864  0.00  0.00     0.092 N 
HETATM   22  C   UNK N   1      42.288  34.438  45.795  0.00  0.00     0.299 C 
BRANCH  21  23
HETATM   23  C   UNK N   1      42.402  32.501  44.216  0.00  0.00     0.302 C 
BRANCH  23  24
HETATM   24  C   UNK N   1      41.310  33.020  43.275  0.00  0.00     0.302 C 
BRANCH  24  25
HETATM   25  N   UNK N   1      41.879  34.042  42.362  0.00  0.00     0.092 N 
HETATM   26  C   UNK N   1      41.127  35.304  42.363  0.00  0.00     0.275 C 
HETATM   27  C   UNK N   1      39.909  35.030  41.512  0.00  0.00     0.064 C 
HETATM   28  C   UNK N   1      40.471  34.190  40.371  0.00  0.00     0.150 C 
HETATM   29  C   UNK N   1      41.792  33.634  40.947  0.00  0.00     0.304 C 
BRANCH  28  30
HETATM   30  O   UNK N   1      40.736  35.008  39.246  0.00  0.00    -0.389 OA
HETATM   31  C   UNK N   1      39.578  35.744  38.913  0.00  0.00     0.202 C 
ENDBRANCH  28  30
ENDBRANCH  24  25
ENDBRANCH  23  24
ENDBRANCH  21  23
ENDBRANCH   1  17
BRANCH   4  32
HETATM   32  C   UNK N   1      38.019  34.462  49.005  0.00  0.00     0.272 C 
HETATM   33  O   UNK N   1      37.380  34.501  47.966  0.00  0.00    -0.266 OA
HETATM   34  N   UNK N   1      37.399  34.018  50.163  0.00  0.00    -0.343 N 
HETATM   35  C   UNK N   1      37.994  34.119  51.496  0.00  0.00     0.152 C 
HETATM   36  C   UNK N   1      36.086  33.381  50.107  0.00  0.00     0.152 C 
HETATM   37  C   UNK N   1      36.944  34.695  52.460  0.00  0.00     0.187 C 
HETATM   38  O   UNK N   1      35.770  33.905  52.448  0.00  0.00    -0.388 OA
HETATM   39  C   UNK N   1      35.164  33.988  51.170  0.00  0.00     0.187 C 
ENDBRANCH   4  32
TORSDOF 6
ENDMDL
MODEL 2
REMARK VINA RESULT:      -8.3      6.417     10.314
REMARK  6 active torsions:
REMARK  status: ('A' for Active; 'I' for Inactive)
REMARK    1  A    between atoms: O_2  and  C_3 
REMARK    2  A    between atoms: N_6  and  C_7 
REMARK    3  A    between atoms: C_7  and  C_8 
REMARK    4  A    between atoms: C_8  and  N_9 
REMARK    5  A    between atoms: C_13  and  N_14 
REMARK    6  A    between atoms: C_17  and  C_18 
REMARK       I    between atoms: C_18  and  N_20 
ROOT
HETATM    1  N   UNK N   1      41.339  39.411  54.283  0.00  0.00    -0.284 N 
HETATM    2  N   UNK N   1      40.160  39.237  53.710  0.00  0.00    -0.292 N 
ATOM      3  HN  UNK N   1      39.263  39.311  54.191  1.00  0.00     0.187 HD
HETATM    4  C   UNK N   1      40.308  38.951  52.409  0.00  0.00     0.126 A 
HETATM    5  C   UNK N   1      41.671  38.903  52.127  0.00  0.00     0.019 A 
HETATM    6  C   UNK N   1      42.319  39.236  53.335  0.00  0.00     0.072 A 
HETATM    7  C   UNK N   1      43.833  39.248  53.508  0.00  0.00     0.014 A 
HETATM    8  C   UNK N   1      44.488  39.984  54.511  0.00  0.00     0.015 A 
HETATM    9  C   UNK N   1      45.879  39.956  54.643  0.00  0.00     0.001 A 
HETATM   10  C   UNK N   1      46.651  39.194  53.771  0.00  0.00     0.002 A 
HETATM   11  C   UNK N   1      46.033  38.474  52.750  0.00  0.00     0.024 A 
HETATM   12  C   UNK N   1      44.641  38.508  52.613  0.00  0.00     0.072 A 
HETATM   13  S   UNK N   1      43.844  37.643  51.289  0.00  0.00     0.180 S 
HETATM   14  O   UNK N   1      44.786  37.473  50.088  0.00  0.00    -0.222 OA
HETATM   15  O   UNK N   1      43.547  36.195  51.711  0.00  0.00    -0.222 OA
HETATM   16  C   UNK N   1      42.338  38.507  50.832  0.00  0.00     0.189 C 
ENDROOT
BRANCH   1  17
HETATM   17  C   UNK N   1      41.375  39.556  55.752  0.00  0.00     0.137 C 
HETATM   18  C   UNK N   1      41.695  40.969  56.256  0.00  0.00     0.031 C 
HETATM   19  C   UNK N   1      42.004  40.942  57.769  0.00  0.00     0.032 C 
HETATM   20  C   UNK N   1      41.332  39.748  58.498  0.00  0.00     0.272 C 
HETATM   21  N   UNK N   1      40.039  39.364  57.895  0.00  0.00     0.092 N 
HETATM   22  C   UNK N   1      40.174  38.907  56.483  0.00  0.00     0.299 C 
BRANCH  21  23
HETATM   23  C   UNK N   1      38.965  40.352  58.129  0.00  0.00     0.302 C 
BRANCH  23  24
HETATM   24  C   UNK N   1      37.690  39.964  57.373  0.00  0.00     0.302 C 
BRANCH  24  25
HETATM   25  N   UNK N   1      37.022  41.184  56.856  0.00  0.00     0.092 N 
HETATM   26  C   UNK N   1      36.187  40.931  55.675  0.00  0.00     0.275 C 
HETATM   27  C   UNK N   1      37.164  40.820  54.527  0.00  0.00     0.064 C 
HETATM   28  C   UNK N   1      38.177  41.917  54.833  0.00  0.00     0.150 C 
HETATM   29  C   UNK N   1      37.989  42.173  56.344  0.00  0.00     0.304 C 
BRANCH  28  30
HETATM   30  O   UNK N   1      37.868  43.087  54.098  0.00  0.00    -0.389 OA
HETATM   31  C   UNK N   1      37.807  44.194  54.973  0.00  0.00     0.202 C 
ENDBRANCH  28  30
ENDBRANCH  24  25
ENDBRANCH  23  24
ENDBRANCH  21  23
ENDBRANCH   1  17
BRANCH   4  32
HETATM   32  C   UNK N   1      39.147  38.605  51.519  0.00  0.00     0.272 C 
HETATM   33  O   UNK N   1      39.034  39.217  50.469  0.00  0.00    -0.266 OA
HETATM   34  N   UNK N   1      38.282  37.555  51.785  0.00  0.00    -0.343 N 
HETATM   35  C   UNK N   1      38.189  36.886  53.083  0.00  0.00     0.152 C 
HETATM   36  C   UNK N   1      37.408  37.027  50.741  0.00  0.00     0.152 C 
HETATM   37  C   UNK N   1      36.705  36.767  53.469  0.00  0.00     0.187 C 
HETATM   38  O   UNK N   1      35.980  36.093  52.457  0.00  0.00    -0.388 OA
HETATM   39  C   UNK N   1      35.980  36.880  51.278  0.00  0.00     0.187 C 
ENDBRANCH   4  32
TORSDOF 6
ENDMDL
MODEL 3
REMARK VINA RESULT:      -8.1      4.964      7.344
REMARK  6 active torsions:
REMARK  status: ('A' for Active; 'I' for Inactive)
REMARK    1  A    between atoms: O_2  and  C_3 
REMARK    2  A    between atoms: N_6  and  C_7 
REMARK    3  A    between atoms: C_7  and  C_8 
REMARK    4  A    between atoms: C_8  and  N_9 
REMARK    5  A    between atoms: C_13  and  N_14 
REMARK    6  A    between atoms: C_17  and  C_18 
REMARK       I    between atoms: C_18  and  N_20 
ROOT
HETATM    1  N   UNK N   1      41.118  38.852  53.145  0.00  0.00    -0.284 N 
HETATM    2  N   UNK N   1      40.386  39.260  54.167  0.00  0.00    -0.292 N 
ATOM      3  HN  UNK N   1      39.370  39.360  54.152  1.00  0.00     0.187 HD
HETATM    4  C   UNK N   1      41.164  39.524  55.226  0.00  0.00     0.126 A 
HETATM    5  C   UNK N   1      42.488  39.305  54.857  0.00  0.00     0.019 A 
HETATM    6  C   UNK N   1      42.438  38.839  53.526  0.00  0.00     0.072 A 
HETATM    7  C   UNK N   1      43.674  38.528  52.692  0.00  0.00     0.014 A 
HETATM    8  C   UNK N   1      43.656  37.667  51.579  0.00  0.00     0.015 A 
HETATM    9  C   UNK N   1      44.811  37.420  50.833  0.00  0.00     0.001 A 
HETATM   10  C   UNK N   1      46.015  38.023  51.182  0.00  0.00     0.002 A 
HETATM   11  C   UNK N   1      46.072  38.860  52.295  0.00  0.00     0.024 A 
HETATM   12  C   UNK N   1      44.918  39.102  53.048  0.00  0.00     0.072 A 
HETATM   13  S   UNK N   1      44.982  40.120  54.496  0.00  0.00     0.180 S 
HETATM   14  O   UNK N   1      46.385  40.112  55.120  0.00  0.00    -0.222 OA
HETATM   15  O   UNK N   1      44.776  41.594  54.112  0.00  0.00    -0.222 OA
HETATM   16  C   UNK N   1      43.734  39.573  55.666  0.00  0.00     0.189 C 
ENDROOT
BRANCH   1  17
HETATM   17  C   UNK N   1      40.447  38.689  51.840  0.00  0.00     0.137 C 
HETATM   18  C   UNK N   1      41.025  39.543  50.703  0.00  0.00     0.031 C 
HETATM   19  C   UNK N   1      40.076  39.527  49.485  0.00  0.00     0.032 C 
HETATM   20  C   UNK N   1      39.191  38.254  49.428  0.00  0.00     0.272 C 
HETATM   21  N   UNK N   1      39.866  37.063  49.986  0.00  0.00     0.092 N 
HETATM   22  C   UNK N   1      40.204  37.216  51.430  0.00  0.00     0.299 C 
BRANCH  21  23
HETATM   23  C   UNK N   1      40.968  36.560  49.139  0.00  0.00     0.302 C 
BRANCH  23  24
HETATM   24  C   UNK N   1      41.673  35.375  49.805  0.00  0.00     0.302 C 
BRANCH  24  25
HETATM   25  N   UNK N   1      41.513  34.161  48.969  0.00  0.00     0.092 N 
HETATM   26  C   UNK N   1      42.737  33.355  48.875  0.00  0.00     0.275 C 
HETATM   27  C   UNK N   1      43.607  34.086  47.879  0.00  0.00     0.064 C 
HETATM   28  C   UNK N   1      42.609  34.535  46.818  0.00  0.00     0.150 C 
HETATM   29  C   UNK N   1      41.252  34.490  47.555  0.00  0.00     0.304 C 
BRANCH  28  30
HETATM   30  O   UNK N   1      42.606  33.625  45.734  0.00  0.00    -0.389 OA
HETATM   31  C   UNK N   1      43.935  33.328  45.361  0.00  0.00     0.202 C 
ENDBRANCH  28  30
ENDBRANCH  24  25
ENDBRANCH  23  24
ENDBRANCH  21  23
ENDBRANCH   1  17
BRANCH   4  32
HETATM   32  C   UNK N   1      40.623  40.100  56.505  0.00  0.00     0.272 C 
HETATM   33  O   UNK N   1      40.796  41.291  56.711  0.00  0.00    -0.266 OA
HETATM   34  N   UNK N   1      39.847  39.368  57.390  0.00  0.00    -0.343 N 
HETATM   35  C   UNK N   1      39.737  37.909  57.363  0.00  0.00     0.152 C 
HETATM   36  C   UNK N   1      39.052  40.039  58.415  0.00  0.00     0.152 C 
HETATM   37  C   UNK N   1      39.925  37.375  58.793  0.00  0.00     0.187 C 
HETATM   38  O   UNK N   1      38.993  37.974  59.673  0.00  0.00    -0.388 OA
HETATM   39  C   UNK N   1      39.266  39.361  59.772  0.00  0.00     0.187 C 
ENDBRANCH   4  32
TORSDOF 6
ENDMDL
MODEL 4
REMARK VINA RESULT:      -8.0      5.308      9.653
REMARK  6 active torsions:
REMARK  status: ('A' for Active; 'I' for Inactive)
REMARK    1  A    between atoms: O_2  and  C_3 
REMARK    2  A    between atoms: N_6  and  C_7 
REMARK    3  A    between atoms: C_7  and  C_8 
REMARK    4  A    between atoms: C_8  and  N_9 
REMARK    5  A    between atoms: C_13  and  N_14 
REMARK    6  A    between atoms: C_17  and  C_18 
REMARK       I    between atoms: C_18  and  N_20 
ROOT
HETATM    1  N   UNK N   1      41.065  38.947  52.513  0.00  0.00    -0.284 N 
HETATM    2  N   UNK N   1      39.779  39.002  52.814  0.00  0.00    -0.292 N 
ATOM      3  HN  UNK N   1      39.399  39.393  53.676  1.00  0.00     0.187 HD
HETATM    4  C   UNK N   1      39.043  38.471  51.827  0.00  0.00     0.126 A 
HETATM    5  C   UNK N   1      39.909  38.012  50.838  0.00  0.00     0.019 A 
HETATM    6  C   UNK N   1      41.204  38.358  51.280  0.00  0.00     0.072 A 
HETATM    7  C   UNK N   1      42.479  37.992  50.530  0.00  0.00     0.014 A 
HETATM    8  C   UNK N   1      43.693  38.685  50.691  0.00  0.00     0.015 A 
HETATM    9  C   UNK N   1      44.843  38.306  49.993  0.00  0.00     0.001 A 
HETATM   10  C   UNK N   1      44.808  37.230  49.112  0.00  0.00     0.002 A 
HETATM   11  C   UNK N   1      43.614  36.540  48.911  0.00  0.00     0.024 A 
HETATM   12  C   UNK N   1      42.459  36.923  49.603  0.00  0.00     0.072 A 
HETATM   13  S   UNK N   1      40.920  36.093  49.320  0.00  0.00     0.180 S 
HETATM   14  O   UNK N   1      40.871  35.476  47.914  0.00  0.00    -0.222 OA
HETATM   15  O   UNK N   1      40.805  34.871  50.244  0.00  0.00    -0.222 OA
HETATM   16  C   UNK N   1      39.565  37.240  49.588  0.00  0.00     0.189 C 
ENDROOT
BRANCH   1  17
HETATM   17  C   UNK N   1      42.033  39.322  53.563  0.00  0.00     0.137 C 
HETATM   18  C   UNK N   1      42.572  40.756  53.466  0.00  0.00     0.031 C 
HETATM   19  C   UNK N   1      43.781  40.940  54.408  0.00  0.00     0.032 C 
HETATM   20  C   UNK N   1      43.760  39.959  55.611  0.00  0.00     0.272 C 
HETATM   21  N   UNK N   1      42.390  39.624  56.053  0.00  0.00     0.092 N 
HETATM   22  C   UNK N   1      41.596  38.933  54.997  0.00  0.00     0.299 C 
BRANCH  21  23
HETATM   23  C   UNK N   1      41.696  40.747  56.718  0.00  0.00     0.302 C 
BRANCH  23  24
HETATM   24  C   UNK N   1      40.712  40.234  57.773  0.00  0.00     0.302 C 
BRANCH  24  25
HETATM   25  N   UNK N   1      39.437  40.986  57.679  0.00  0.00     0.092 N 
HETATM   26  C   UNK N   1      38.297  40.273  58.271  0.00  0.00     0.275 C 
HETATM   27  C   UNK N   1      37.914  39.235  57.243  0.00  0.00     0.064 C 
HETATM   28  C   UNK N   1      38.061  39.987  55.925  0.00  0.00     0.150 C 
HETATM   29  C   UNK N   1      38.998  41.162  56.282  0.00  0.00     0.304 C 
BRANCH  28  30
HETATM   30  O   UNK N   1      36.803  40.478  55.499  0.00  0.00    -0.389 OA
HETATM   31  C   UNK N   1      35.981  39.398  55.108  0.00  0.00     0.202 C 
ENDBRANCH  28  30
ENDBRANCH  24  25
ENDBRANCH  23  24
ENDBRANCH  21  23
ENDBRANCH   1  17
BRANCH   4  32
HETATM   32  C   UNK N   1      37.553  38.304  51.928  0.00  0.00     0.272 C 
HETATM   33  O   UNK N   1      36.850  39.231  51.556  0.00  0.00    -0.266 OA
HETATM   34  N   UNK N   1      36.953  37.115  52.311  0.00  0.00    -0.343 N 
HETATM   35  C   UNK N   1      37.667  36.016  52.963  0.00  0.00     0.152 C 
HETATM   36  C   UNK N   1      35.536  36.877  52.054  0.00  0.00     0.152 C 
HETATM   37  C   UNK N   1      36.849  35.550  54.178  0.00  0.00     0.187 C 
HETATM   38  O   UNK N   1      35.538  35.189  53.786  0.00  0.00    -0.388 OA
HETATM   39  C   UNK N   1      34.856  36.339  53.317  0.00  0.00     0.187 C 
ENDBRANCH   4  32
TORSDOF 6
ENDMDL
MODEL 5
REMARK VINA RESULT:      -7.6      5.687      9.961
REMARK  6 active torsions:
REMARK  status: ('A' for Active; 'I' for Inactive)
REMARK    1  A    between atoms: O_2  and  C_3 
REMARK    2  A    between atoms: N_6  and  C_7 
REMARK    3  A    between atoms: C_7  and  C_8 
REMARK    4  A    between atoms: C_8  and  N_9 
REMARK    5  A    between atoms: C_13  and  N_14 
REMARK    6  A    between atoms: C_17  and  C_18 
REMARK       I    between atoms: C_18  and  N_20 
ROOT
HETATM    1  N   UNK N   1      40.946  39.625  53.657  0.00  0.00    -0.284 N 
HETATM    2  N   UNK N   1      39.874  39.368  52.926  0.00  0.00    -0.292 N 
ATOM      3  HN  UNK N   1      38.912  39.472  53.249  1.00  0.00     0.187 HD
HETATM    4  C   UNK N   1      40.229  38.953  51.703  0.00  0.00     0.126 A 
HETATM    5  C   UNK N   1      41.619  38.905  51.647  0.00  0.00     0.019 A 
HETATM    6  C   UNK N   1      42.064  39.374  52.901  0.00  0.00     0.072 A 
HETATM    7  C   UNK N   1      43.532  39.435  53.309  0.00  0.00     0.014 A 
HETATM    8  C   UNK N   1      44.015  40.284  54.321  0.00  0.00     0.015 A 
HETATM    9  C   UNK N   1      45.367  40.298  54.673  0.00  0.00     0.001 A 
HETATM   10  C   UNK N   1      46.272  39.467  54.019  0.00  0.00     0.002 A 
HETATM   11  C   UNK N   1      45.828  38.633  52.994  0.00  0.00     0.024 A 
HETATM   12  C   UNK N   1      44.476  38.624  52.636  0.00  0.00     0.072 A 
HETATM   13  S   UNK N   1      43.904  37.611  51.300  0.00  0.00     0.180 S 
HETATM   14  O   UNK N   1      45.026  37.338  50.288  0.00  0.00    -0.222 OA
HETATM   15  O   UNK N   1      43.550  36.208  51.819  0.00  0.00    -0.222 OA
HETATM   16  C   UNK N   1      42.486  38.392  50.523  0.00  0.00     0.189 C 
ENDROOT
BRANCH   1  17
HETATM   17  C   UNK N   1      40.746  39.920  55.090  0.00  0.00     0.137 C 
HETATM   18  C   UNK N   1      39.452  40.675  55.422  0.00  0.00     0.031 C 
HETATM   19  C   UNK N   1      39.490  41.192  56.876  0.00  0.00     0.032 C 
HETATM   20  C   UNK N   1      40.417  40.348  57.790  0.00  0.00     0.272 C 
HETATM   21  N   UNK N   1      40.460  38.922  57.401  0.00  0.00     0.092 N 
HETATM   22  C   UNK N   1      41.005  38.716  56.028  0.00  0.00     0.299 C 
BRANCH  21  23
HETATM   23  C   UNK N   1      39.206  38.196  57.688  0.00  0.00     0.302 C 
BRANCH  23  24
HETATM   24  C   UNK N   1      39.323  36.722  57.289  0.00  0.00     0.302 C 
BRANCH  24  25
HETATM   25  N   UNK N   1      38.138  36.321  56.492  0.00  0.00     0.092 N 
HETATM   26  C   UNK N   1      36.903  36.250  57.284  0.00  0.00     0.275 C 
HETATM   27  C   UNK N   1      37.002  34.945  58.038  0.00  0.00     0.064 C 
HETATM   28  C   UNK N   1      37.594  33.995  57.004  0.00  0.00     0.150 C 
HETATM   29  C   UNK N   1      38.254  34.943  55.979  0.00  0.00     0.304 C 
BRANCH  28  30
HETATM   30  O   UNK N   1      36.567  33.244  56.384  0.00  0.00    -0.389 OA
HETATM   31  C   UNK N   1      36.726  33.292  54.982  0.00  0.00     0.202 C 
ENDBRANCH  28  30
ENDBRANCH  24  25
ENDBRANCH  23  24
ENDBRANCH  21  23
ENDBRANCH   1  17
BRANCH   4  32
HETATM   32  C   UNK N   1      39.227  38.493  50.681  0.00  0.00     0.272 C 
HETATM   33  O   UNK N   1      38.939  39.264  49.779  0.00  0.00    -0.266 OA
HETATM   34  N   UNK N   1      38.713  37.206  50.658  0.00  0.00    -0.343 N 
HETATM   35  C   UNK N   1      38.819  36.267  51.775  0.00  0.00     0.152 C 
HETATM   36  C   UNK N   1      38.039  36.694  49.468  0.00  0.00     0.152 C 
HETATM   37  C   UNK N   1      37.437  35.640  52.023  0.00  0.00     0.187 C 
HETATM   38  O   UNK N   1      36.949  35.029  50.844  0.00  0.00    -0.388 OA
HETATM   39  C   UNK N   1      36.718  36.023  49.861  0.00  0.00     0.187 C 
ENDBRANCH   4  32
TORSDOF 6
ENDMDL
MODEL 6
REMARK VINA RESULT:      -7.6      5.267      7.547
REMARK  6 active torsions:
REMARK  status: ('A' for Active; 'I' for Inactive)
REMARK    1  A    between atoms: O_2  and  C_3 
REMARK    2  A    between atoms: N_6  and  C_7 
REMARK    3  A    between atoms: C_7  and  C_8 
REMARK    4  A    between atoms: C_8  and  N_9 
REMARK    5  A    between atoms: C_13  and  N_14 
REMARK    6  A    between atoms: C_17  and  C_18 
REMARK       I    between atoms: C_18  and  N_20 
ROOT
HETATM    1  N   UNK N   1      40.635  38.867  53.419  0.00  0.00    -0.284 N 
HETATM    2  N   UNK N   1      39.449  38.910  54.002  0.00  0.00    -0.292 N 
ATOM      3  HN  UNK N   1      38.557  38.838  53.511  1.00  0.00     0.187 HD
HETATM    4  C   UNK N   1      39.582  39.061  55.327  0.00  0.00     0.126 A 
HETATM    5  C   UNK N   1      40.940  39.155  55.619  0.00  0.00     0.019 A 
HETATM    6  C   UNK N   1      41.604  38.993  54.384  0.00  0.00     0.072 A 
HETATM    7  C   UNK N   1      43.116  39.087  54.219  0.00  0.00     0.014 A 
HETATM    8  C   UNK N   1      43.811  38.502  53.144  0.00  0.00     0.015 A 
HETATM    9  C   UNK N   1      45.198  38.624  53.023  0.00  0.00     0.001 A 
HETATM   10  C   UNK N   1      45.926  39.330  53.976  0.00  0.00     0.002 A 
HETATM   11  C   UNK N   1      45.271  39.898  55.067  0.00  0.00     0.024 A 
HETATM   12  C   UNK N   1      43.883  39.769  55.193  0.00  0.00     0.072 A 
HETATM   13  S   UNK N   1      43.039  40.438  56.599  0.00  0.00     0.180 S 
HETATM   14  O   UNK N   1      43.971  40.530  57.816  0.00  0.00    -0.222 OA
HETATM   15  O   UNK N   1      42.659  41.904  56.336  0.00  0.00    -0.222 OA
HETATM   16  C   UNK N   1      41.586  39.445  56.952  0.00  0.00     0.189 C 
ENDROOT
BRANCH   1  17
HETATM   17  C   UNK N   1      40.677  38.885  51.943  0.00  0.00     0.137 C 
HETATM   18  C   UNK N   1      41.450  40.061  51.332  0.00  0.00     0.031 C 
HETATM   19  C   UNK N   1      41.178  40.152  49.815  0.00  0.00     0.032 C 
HETATM   20  C   UNK N   1      40.777  38.787  49.193  0.00  0.00     0.272 C 
HETATM   21  N   UNK N   1      41.422  37.641  49.866  0.00  0.00     0.092 N 
HETATM   22  C   UNK N   1      41.036  37.522  51.301  0.00  0.00     0.299 C 
BRANCH  21  23
HETATM   23  C   UNK N   1      42.873  37.545  49.603  0.00  0.00     0.302 C 
BRANCH  23  24
HETATM   24  C   UNK N   1      43.294  36.090  49.376  0.00  0.00     0.302 C 
BRANCH  24  25
HETATM   25  N   UNK N   1      42.296  35.407  48.517  0.00  0.00     0.092 N 
HETATM   26  C   UNK N   1      41.826  34.132  49.075  0.00  0.00     0.275 C 
HETATM   27  C   UNK N   1      42.939  33.151  48.789  0.00  0.00     0.064 C 
HETATM   28  C   UNK N   1      43.382  33.536  47.383  0.00  0.00     0.150 C 
HETATM   29  C   UNK N   1      42.871  34.985  47.226  0.00  0.00     0.304 C 
BRANCH  28  30
HETATM   30  O   UNK N   1      42.764  32.694  46.427  0.00  0.00    -0.389 OA
HETATM   31  C   UNK N   1      42.522  33.421  45.241  0.00  0.00     0.202 C 
ENDBRANCH  28  30
ENDBRANCH  24  25
ENDBRANCH  23  24
ENDBRANCH  21  23
ENDBRANCH   1  17
BRANCH   4  32
HETATM   32  C   UNK N   1      38.405  39.241  56.244  0.00  0.00     0.272 C 
HETATM   33  O   UNK N   1      37.925  38.242  56.756  0.00  0.00    -0.266 OA
HETATM   34  N   UNK N   1      37.926  40.487  56.616  0.00  0.00    -0.343 N 
HETATM   35  C   UNK N   1      38.275  41.732  55.931  0.00  0.00     0.152 C 
HETATM   36  C   UNK N   1      37.037  40.631  57.766  0.00  0.00     0.152 C 
HETATM   37  C   UNK N   1      36.986  42.527  55.668  0.00  0.00     0.187 C 
HETATM   38  O   UNK N   1      36.284  42.750  56.876  0.00  0.00    -0.388 OA
HETATM   39  C   UNK N   1      35.838  41.510  57.395  0.00  0.00     0.187 C 
ENDBRANCH   4  32
TORSDOF 6
ENDMDL
MODEL 7
REMARK VINA RESULT:      -7.5      5.421      7.841
REMARK  6 active torsions:
REMARK  status: ('A' for Active; 'I' for Inactive)
REMARK    1  A    between atoms: O_2  and  C_3 
REMARK    2  A    between atoms: N_6  and  C_7 
REMARK    3  A    between atoms: C_7  and  C_8 
REMARK    4  A    between atoms: C_8  and  N_9 
REMARK    5  A    between atoms: C_13  and  N_14 
REMARK    6  A    between atoms: C_17  and  C_18 
REMARK       I    between atoms: C_18  and  N_20 
ROOT
HETATM    1  N   UNK N   1      41.274  38.897  53.387  0.00  0.00    -0.284 N 
HETATM    2  N   UNK N   1      40.024  38.807  53.812  0.00  0.00    -0.292 N 
ATOM      3  HN  UNK N   1      39.212  38.682  53.207  1.00  0.00     0.187 HD
HETATM    4  C   UNK N   1      39.975  38.902  55.148  0.00  0.00     0.126 A 
HETATM    5  C   UNK N   1      41.271  39.099  55.617  0.00  0.00     0.019 A 
HETATM    6  C   UNK N   1      42.097  39.058  54.474  0.00  0.00     0.072 A 
HETATM    7  C   UNK N   1      43.603  39.291  54.510  0.00  0.00     0.014 A 
HETATM    8  C   UNK N   1      44.479  38.825  53.513  0.00  0.00     0.015 A 
HETATM    9  C   UNK N   1      45.852  39.073  53.578  0.00  0.00     0.001 A 
HETATM   10  C   UNK N   1      46.386  39.790  54.644  0.00  0.00     0.002 A 
HETATM   11  C   UNK N   1      45.549  40.243  55.662  0.00  0.00     0.024 A 
HETATM   12  C   UNK N   1      44.174  39.988  55.601  0.00  0.00     0.072 A 
HETATM   13  S   UNK N   1      43.101  40.509  56.911  0.00  0.00     0.180 S 
HETATM   14  O   UNK N   1      43.861  40.620  58.241  0.00  0.00    -0.222 OA
HETATM   15  O   UNK N   1      42.624  41.948  56.658  0.00  0.00    -0.222 OA
HETATM   16  C   UNK N   1      41.714  39.376  57.033  0.00  0.00     0.189 C 
ENDROOT
BRANCH   1  17
HETATM   17  C   UNK N   1      41.499  38.993  51.931  0.00  0.00     0.137 C 
HETATM   18  C   UNK N   1      42.285  37.827  51.318  0.00  0.00     0.031 C 
HETATM   19  C   UNK N   1      42.720  38.171  49.877  0.00  0.00     0.032 C 
HETATM   20  C   UNK N   1      41.792  39.216  49.202  0.00  0.00     0.272 C 
HETATM   21  N   UNK N   1      40.390  39.113  49.656  0.00  0.00     0.092 N 
HETATM   22  C   UNK N   1      40.237  39.370  51.117  0.00  0.00     0.299 C 
BRANCH  21  23
HETATM   23  C   UNK N   1      39.698  37.904  49.162  0.00  0.00     0.302 C 
BRANCH  23  24
HETATM   24  C   UNK N   1      38.682  37.397  50.189  0.00  0.00     0.302 C 
BRANCH  24  25
HETATM   25  N   UNK N   1      39.174  36.139  50.804  0.00  0.00     0.092 N 
HETATM   26  C   UNK N   1      39.795  35.225  49.837  0.00  0.00     0.275 C 
HETATM   27  C   UNK N   1      38.635  34.575  49.119  0.00  0.00     0.064 C 
HETATM   28  C   UNK N   1      37.632  34.331  50.241  0.00  0.00     0.150 C 
HETATM   29  C   UNK N   1      38.075  35.317  51.343  0.00  0.00     0.304 C 
BRANCH  28  30
HETATM   30  O   UNK N   1      37.735  32.998  50.708  0.00  0.00    -0.389 OA
HETATM   31  C   UNK N   1      37.111  32.889  51.969  0.00  0.00     0.202 C 
ENDBRANCH  28  30
ENDBRANCH  24  25
ENDBRANCH  23  24
ENDBRANCH  21  23
ENDBRANCH   1  17
BRANCH   4  32
HETATM   32  C   UNK N   1      38.681  38.932  55.911  0.00  0.00     0.272 C 
HETATM   33  O   UNK N   1      38.113  40.006  56.026  0.00  0.00    -0.266 OA
HETATM   34  N   UNK N   1      38.058  37.786  56.380  0.00  0.00    -0.343 N 
HETATM   35  C   UNK N   1      38.718  36.484  56.482  0.00  0.00     0.152 C 
HETATM   36  C   UNK N   1      36.656  37.813  56.787  0.00  0.00     0.152 C 
HETATM   37  C   UNK N   1      38.426  35.893  57.871  0.00  0.00     0.187 C 
HETATM   38  O   UNK N   1      37.031  35.813  58.096  0.00  0.00    -0.388 OA
HETATM   39  C   UNK N   1      36.490  37.122  58.144  0.00  0.00     0.187 C 
ENDBRANCH   4  32
TORSDOF 6
ENDMDL
MODEL 8
REMARK VINA RESULT:      -7.5      5.889      8.503
REMARK  6 active torsions:
REMARK  status: ('A' for Active; 'I' for Inactive)
REMARK    1  A    between atoms: O_2  and  C_3 
REMARK    2  A    between atoms: N_6  and  C_7 
REMARK    3  A    between atoms: C_7  and  C_8 
REMARK    4  A    between atoms: C_8  and  N_9 
REMARK    5  A    between atoms: C_13  and  N_14 
REMARK    6  A    between atoms: C_17  and  C_18 
REMARK       I    between atoms: C_18  and  N_20 
ROOT
HETATM    1  N   UNK N   1      41.300  38.847  53.393  0.00  0.00    -0.284 N 
HETATM    2  N   UNK N   1      40.053  38.787  53.832  0.00  0.00    -0.292 N 
ATOM      3  HN  UNK N   1      39.234  38.654  53.239  1.00  0.00     0.187 HD
HETATM    4  C   UNK N   1      40.018  38.928  55.164  0.00  0.00     0.126 A 
HETATM    5  C   UNK N   1      41.321  39.125  55.615  0.00  0.00     0.019 A 
HETATM    6  C   UNK N   1      42.135  39.034  54.467  0.00  0.00     0.072 A 
HETATM    7  C   UNK N   1      43.644  39.249  54.482  0.00  0.00     0.014 A 
HETATM    8  C   UNK N   1      44.505  38.737  53.493  0.00  0.00     0.015 A 
HETATM    9  C   UNK N   1      45.882  38.970  53.538  0.00  0.00     0.001 A 
HETATM   10  C   UNK N   1      46.435  39.715  54.574  0.00  0.00     0.002 A 
HETATM   11  C   UNK N   1      45.612  40.213  55.583  0.00  0.00     0.024 A 
HETATM   12  C   UNK N   1      44.234  39.974  55.544  0.00  0.00     0.072 A 
HETATM   13  S   UNK N   1      43.180  40.553  56.845  0.00  0.00     0.180 S 
HETATM   14  O   UNK N   1      43.953  40.699  58.164  0.00  0.00    -0.222 OA
HETATM   15  O   UNK N   1      42.719  41.988  56.547  0.00  0.00    -0.222 OA
HETATM   16  C   UNK N   1      41.780  39.443  57.017  0.00  0.00     0.189 C 
ENDROOT
BRANCH   1  17
HETATM   17  C   UNK N   1      41.513  38.892  51.933  0.00  0.00     0.137 C 
HETATM   18  C   UNK N   1      42.418  37.786  51.376  0.00  0.00     0.031 C 
HETATM   19  C   UNK N   1      42.814  38.100  49.917  0.00  0.00     0.032 C 
HETATM   20  C   UNK N   1      41.779  39.003  49.194  0.00  0.00     0.272 C 
HETATM   21  N   UNK N   1      40.396  38.774  49.662  0.00  0.00     0.092 N 
HETATM   22  C   UNK N   1      40.217  39.088  51.108  0.00  0.00     0.299 C 
BRANCH  21  23
HETATM   23  C   UNK N   1      39.838  37.474  49.234  0.00  0.00     0.302 C 
BRANCH  23  24
HETATM   24  C   UNK N   1      39.015  36.836  50.358  0.00  0.00     0.302 C 
BRANCH  24  25
HETATM   25  N   UNK N   1      37.583  36.797  49.972  0.00  0.00     0.092 N 
HETATM   26  C   UNK N   1      36.888  38.071  50.196  0.00  0.00     0.275 C 
HETATM   27  C   UNK N   1      36.623  38.111  51.683  0.00  0.00     0.064 C 
HETATM   28  C   UNK N   1      36.225  36.674  51.999  0.00  0.00     0.150 C 
HETATM   29  C   UNK N   1      36.806  35.870  50.816  0.00  0.00     0.304 C 
BRANCH  28  30
HETATM   30  O   UNK N   1      34.815  36.552  52.028  0.00  0.00    -0.389 OA
HETATM   31  C   UNK N   1      34.377  36.435  53.365  0.00  0.00     0.202 C 
ENDBRANCH  28  30
ENDBRANCH  24  25
ENDBRANCH  23  24
ENDBRANCH  21  23
ENDBRANCH   1  17
BRANCH   4  32
HETATM   32  C   UNK N   1      38.731  39.001  55.937  0.00  0.00     0.272 C 
HETATM   33  O   UNK N   1      38.326  37.978  56.466  0.00  0.00    -0.266 OA
HETATM   34  N   UNK N   1      38.057  40.191  56.166  0.00  0.00    -0.343 N 
HETATM   35  C   UNK N   1      38.321  41.430  55.434  0.00  0.00     0.152 C 
HETATM   36  C   UNK N   1      37.033  40.279  57.202  0.00  0.00     0.152 C 
HETATM   37  C   UNK N   1      36.980  42.028  54.980  0.00  0.00     0.187 C 
HETATM   38  O   UNK N   1      36.122  42.224  56.088  0.00  0.00    -0.388 OA
HETATM   39  C   UNK N   1      35.782  40.967  56.645  0.00  0.00     0.187 C 
ENDBRANCH   4  32
TORSDOF 6
ENDMDL
MODEL 9
REMARK VINA RESULT:      -7.2      3.277      8.631
REMARK  6 active torsions:
REMARK  status: ('A' for Active; 'I' for Inactive)
REMARK    1  A    between atoms: O_2  and  C_3 
REMARK    2  A    between atoms: N_6  and  C_7 
REMARK    3  A    between atoms: C_7  and  C_8 
REMARK    4  A    between atoms: C_8  and  N_9 
REMARK    5  A    between atoms: C_13  and  N_14 
REMARK    6  A    between atoms: C_17  and  C_18 
REMARK       I    between atoms: C_18  and  N_20 
ROOT
HETATM    1  N   UNK N   1      38.827  34.113  48.133  0.00  0.00    -0.284 N 
HETATM    2  N   UNK N   1      40.079  34.479  48.348  0.00  0.00    -0.292 N 
ATOM      3  HN  UNK N   1      40.423  34.894  49.215  1.00  0.00     0.187 HD
HETATM    4  C   UNK N   1      40.833  34.229  47.269  0.00  0.00     0.126 A 
HETATM    5  C   UNK N   1      40.011  33.698  46.279  0.00  0.00     0.019 A 
HETATM    6  C   UNK N   1      38.731  33.597  46.864  0.00  0.00     0.072 A 
HETATM    7  C   UNK N   1      37.493  33.118  46.115  0.00  0.00     0.014 A 
HETATM    8  C   UNK N   1      36.358  32.593  46.759  0.00  0.00     0.015 A 
HETATM    9  C   UNK N   1      35.239  32.177  46.034  0.00  0.00     0.001 A 
HETATM   10  C   UNK N   1      35.227  32.271  44.645  0.00  0.00     0.002 A 
HETATM   11  C   UNK N   1      36.346  32.762  43.976  0.00  0.00     0.024 A 
HETATM   12  C   UNK N   1      37.471  33.172  44.701  0.00  0.00     0.072 A 
HETATM   13  S   UNK N   1      38.923  33.747  43.865  0.00  0.00     0.180 S 
HETATM   14  O   UNK N   1      39.025  33.153  42.453  0.00  0.00    -0.222 OA
HETATM   15  O   UNK N   1      38.813  35.258  43.603  0.00  0.00    -0.222 OA
HETATM   16  C   UNK N   1      40.372  33.363  44.852  0.00  0.00     0.189 C 
ENDROOT
BRANCH   1  17
HETATM   17  C   UNK N   1      37.820  34.481  49.148  0.00  0.00     0.137 C 
HETATM   18  C   UNK N   1      38.034  33.852  50.532  0.00  0.00     0.031 C 
HETATM   19  C   UNK N   1      36.782  34.053  51.412  0.00  0.00     0.032 C 
HETATM   20  C   UNK N   1      35.947  35.293  50.996  0.00  0.00     0.272 C 
HETATM   21  N   UNK N   1      36.779  36.387  50.453  0.00  0.00     0.092 N 
HETATM   22  C   UNK N   1      37.506  35.996  49.211  0.00  0.00     0.299 C 
BRANCH  21  23
HETATM   23  C   UNK N   1      37.610  37.057  51.475  0.00  0.00     0.302 C 
BRANCH  23  24
HETATM   24  C   UNK N   1      38.590  38.039  50.826  0.00  0.00     0.302 C 
BRANCH  24  25
HETATM   25  N   UNK N   1      39.976  37.714  51.244  0.00  0.00     0.092 N 
HETATM   26  C   UNK N   1      40.665  38.839  51.891  0.00  0.00     0.275 C 
HETATM   27  C   UNK N   1      41.079  39.744  50.754  0.00  0.00     0.064 C 
HETATM   28  C   UNK N   1      41.536  38.761  49.682  0.00  0.00     0.150 C 
HETATM   29  C   UNK N   1      40.854  37.437  50.091  0.00  0.00     0.304 C 
BRANCH  28  30
HETATM   30  O   UNK N   1      42.944  38.617  49.719  0.00  0.00    -0.389 OA
HETATM   31  C   UNK N   1      43.500  39.094  48.512  0.00  0.00     0.202 C 
ENDBRANCH  28  30
ENDBRANCH  24  25
ENDBRANCH  23  24
ENDBRANCH  21  23
ENDBRANCH   1  17
BRANCH   4  32
HETATM   32  C   UNK N   1      42.279  34.629  47.180  0.00  0.00     0.272 C 
HETATM   33  O   UNK N   1      42.543  35.821  47.202  0.00  0.00    -0.266 OA
HETATM   34  N   UNK N   1      43.316  33.708  47.192  0.00  0.00    -0.343 N 
HETATM   35  C   UNK N   1      43.134  32.274  46.965  0.00  0.00     0.152 C 
HETATM   36  C   UNK N   1      44.686  34.132  47.467  0.00  0.00     0.152 C 
HETATM   37  C   UNK N   1      44.184  31.801  45.946  0.00  0.00     0.187 C 
HETATM   38  O   UNK N   1      45.489  32.119  46.391  0.00  0.00    -0.388 OA
HETATM   39  C   UNK N   1      45.639  33.528  46.431  0.00  0.00     0.187 C 
ENDBRANCH   4  32
TORSDOF 6
ENDMDL
