MODEL 1
REMARK VINA RESULT:      -9.0      0.000      0.000
REMARK  5 active torsions:
REMARK  status: ('A' for Active; 'I' for Inactive)
REMARK    1  A    between atoms: C_2  and  C_3 
REMARK       I    between atoms: C_2  and  N_34 
REMARK    2  A    between atoms: N_6  and  C_7 
REMARK    3  A    between atoms: N_11  and  C_12 
REMARK    4  A    between atoms: C_12  and  C_13 
REMARK    5  A    between atoms: C_13  and  N_14 
ROOT
HETATM    1  C   UNK N   1      39.071  38.447  52.228  0.00  0.00     0.126 A 
HETATM    2  N   UNK N   1      39.964  38.053  51.305  0.00  0.00    -0.292 N 
ATOM      3  HN  UNK N   1      39.733  37.575  50.435  1.00  0.00     0.187 HD
HETATM    4  N   UNK N   1      41.191  38.376  51.693  0.00  0.00    -0.284 N 
HETATM    5  C   UNK N   1      41.114  39.015  52.906  0.00  0.00     0.072 A 
HETATM    6  C   UNK N   1      39.762  39.028  53.284  0.00  0.00     0.019 A 
HETATM    7  C   UNK N   1      39.199  39.519  54.594  0.00  0.00     0.189 C 
HETATM    8  S   UNK N   1      40.457  39.158  55.826  0.00  0.00     0.180 S 
HETATM    9  O   UNK N   1      40.472  37.663  56.181  0.00  0.00    -0.222 OA
HETATM   10  O   UNK N   1      40.158  39.838  57.170  0.00  0.00    -0.222 OA
HETATM   11  C   UNK N   1      42.033  39.641  55.183  0.00  0.00     0.072 A 
HETATM   12  C   UNK N   1      43.033  40.131  56.030  0.00  0.00     0.024 A 
HETATM   13  C   UNK N   1      44.243  40.571  55.495  0.00  0.00     0.002 A 
HETATM   14  C   UNK N   1      44.443  40.539  54.117  0.00  0.00     0.001 A 
HETATM   15  C   UNK N   1      43.446  40.043  53.272  0.00  0.00     0.015 A 
HETATM   16  C   UNK N   1      42.231  39.558  53.786  0.00  0.00     0.014 A 
ENDROOT
BRANCH   4  17
HETATM   17  C   UNK N   1      42.336  37.840  50.927  0.00  0.00     0.137 C 
HETATM   18  C   UNK N   1      42.826  38.742  49.783  0.00  0.00     0.031 C 
HETATM   19  C   UNK N   1      44.179  38.244  49.236  0.00  0.00     0.032 C 
HETATM   20  C   UNK N   1      44.442  36.756  49.557  0.00  0.00     0.272 C 
HETATM   21  N   UNK N   1      43.217  35.937  49.496  0.00  0.00     0.092 N 
HETATM   22  C   UNK N   1      42.183  36.357  50.490  0.00  0.00     0.299 C 
BRANCH  21  23
HETATM   23  C   UNK N   1      42.714  35.758  48.116  0.00  0.00     0.302 C 
BRANCH  23  24
HETATM   24  C   UNK N   1      42.580  34.261  47.787  0.00  0.00     0.302 C 
BRANCH  24  25
HETATM   25  N   UNK N   1      43.766  33.782  47.050  0.00  0.00     0.090 N 
HETATM   26  C   UNK N   1      43.471  33.381  45.644  0.00  0.00     0.275 C 
HETATM   27  C   UNK N   1      44.567  32.468  45.033  0.00  0.00     0.067 C 
HETATM   28  C   UNK N   1      45.909  32.896  45.618  0.00  0.00     0.173 C 
HETATM   29  F   UNK N   1      46.973  32.257  45.008  0.00  0.00    -0.249 F 
HETATM   30  C   UNK N   1      45.920  32.613  47.142  0.00  0.00     0.067 C 
HETATM   31  C   UNK N   1      44.510  32.740  47.765  0.00  0.00     0.275 C 
ENDBRANCH  24  25
ENDBRANCH  23  24
ENDBRANCH  21  23
ENDBRANCH   4  17
BRANCH   1  32
HETATM   32  C   UNK N   1      37.579  38.307  52.090  0.00  0.00     0.272 C 
HETATM   33  O   UNK N   1      36.974  39.213  51.533  0.00  0.00    -0.266 OA
HETATM   34  N   UNK N   1      36.870  37.197  52.512  0.00  0.00    -0.343 N 
HETATM   35  C   UNK N   1      35.446  37.112  52.147  0.00  0.00     0.152 C 
HETATM   36  C   UNK N   1      37.543  36.059  53.149  0.00  0.00     0.152 C 
HETATM   37  C   UNK N   1      34.727  35.877  52.699  0.00  0.00     0.187 C 
HETATM   38  O   UNK N   1      35.574  34.749  52.664  0.00  0.00    -0.388 OA
HETATM   39  C   UNK N   1      36.580  34.973  53.630  0.00  0.00     0.187 C 
ENDBRANCH   1  32
TORSDOF 5
ENDMDL
MODEL 2
REMARK VINA RESULT:      -8.6      3.679      5.976
REMARK  5 active torsions:
REMARK  status: ('A' for Active; 'I' for Inactive)
REMARK    1  A    between atoms: C_2  and  C_3 
REMARK       I    between atoms: C_2  and  N_34 
REMARK    2  A    between atoms: N_6  and  C_7 
REMARK    3  A    between atoms: N_11  and  C_12 
REMARK    4  A    between atoms: C_12  and  C_13 
REMARK    5  A    between atoms: C_13  and  N_14 
ROOT
HETATM    1  C   UNK N   1      37.763  36.163  52.941  0.00  0.00     0.126 A 
HETATM    2  N   UNK N   1      38.946  36.386  52.345  0.00  0.00    -0.292 N 
ATOM      3  HN  UNK N   1      39.822  35.926  52.592  1.00  0.00     0.187 HD
HETATM    4  N   UNK N   1      38.808  37.295  51.388  0.00  0.00    -0.284 N 
HETATM    5  C   UNK N   1      37.493  37.682  51.336  0.00  0.00     0.072 A 
HETATM    6  C   UNK N   1      36.817  36.996  52.359  0.00  0.00     0.019 A 
HETATM    7  C   UNK N   1      35.377  37.181  52.767  0.00  0.00     0.189 C 
HETATM    8  S   UNK N   1      35.012  38.917  52.478  0.00  0.00     0.180 S 
HETATM    9  O   UNK N   1      35.629  39.803  53.572  0.00  0.00    -0.222 OA
HETATM   10  O   UNK N   1      33.510  39.215  52.586  0.00  0.00    -0.222 OA
HETATM   11  C   UNK N   1      35.659  39.375  50.896  0.00  0.00     0.072 A 
HETATM   12  C   UNK N   1      35.011  40.331  50.106  0.00  0.00     0.024 A 
HETATM   13  C   UNK N   1      35.498  40.626  48.833  0.00  0.00     0.002 A 
HETATM   14  C   UNK N   1      36.616  39.953  48.346  0.00  0.00     0.001 A 
HETATM   15  C   UNK N   1      37.268  39.004  49.139  0.00  0.00     0.015 A 
HETATM   16  C   UNK N   1      36.821  38.712  50.440  0.00  0.00     0.014 A 
ENDROOT
BRANCH   4  17
HETATM   17  C   UNK N   1      40.028  37.844  50.757  0.00  0.00     0.137 C 
HETATM   18  C   UNK N   1      40.639  36.959  49.658  0.00  0.00     0.031 C 
HETATM   19  C   UNK N   1      41.719  37.731  48.874  0.00  0.00     0.032 C 
HETATM   20  C   UNK N   1      42.287  38.931  49.662  0.00  0.00     0.272 C 
HETATM   21  N   UNK N   1      42.407  38.655  51.107  0.00  0.00     0.092 N 
HETATM   22  C   UNK N   1      41.093  38.369  51.758  0.00  0.00     0.299 C 
BRANCH  21  23
HETATM   23  C   UNK N   1      43.480  37.685  51.419  0.00  0.00     0.302 C 
BRANCH  23  24
HETATM   24  C   UNK N   1      44.598  38.367  52.225  0.00  0.00     0.302 C 
BRANCH  24  25
HETATM   25  N   UNK N   1      45.844  38.431  51.435  0.00  0.00     0.090 N 
HETATM   26  C   UNK N   1      45.869  37.482  50.285  0.00  0.00     0.275 C 
HETATM   27  C   UNK N   1      47.302  37.214  49.754  0.00  0.00     0.067 C 
HETATM   28  C   UNK N   1      48.108  38.499  49.919  0.00  0.00     0.173 C 
HETATM   29  F   UNK N   1      49.350  38.417  49.318  0.00  0.00    -0.249 F 
HETATM   30  C   UNK N   1      48.265  38.816  51.428  0.00  0.00     0.067 C 
HETATM   31  C   UNK N   1      47.055  38.321  52.254  0.00  0.00     0.275 C 
ENDBRANCH  24  25
ENDBRANCH  23  24
ENDBRANCH  21  23
ENDBRANCH   4  17
BRANCH   1  32
HETATM   32  C   UNK N   1      37.530  35.144  54.025  0.00  0.00     0.272 C 
HETATM   33  O   UNK N   1      37.271  34.000  53.679  0.00  0.00    -0.266 OA
HETATM   34  N   UNK N   1      37.639  35.421  55.375  0.00  0.00    -0.343 N 
HETATM   35  C   UNK N   1      37.568  34.290  56.315  0.00  0.00     0.152 C 
HETATM   36  C   UNK N   1      37.989  36.764  55.852  0.00  0.00     0.152 C 
HETATM   37  C   UNK N   1      37.646  34.694  57.792  0.00  0.00     0.187 C 
HETATM   38  O   UNK N   1      38.557  35.756  57.971  0.00  0.00    -0.388 OA
HETATM   39  C   UNK N   1      37.969  36.893  57.376  0.00  0.00     0.187 C 
ENDBRANCH   1  32
TORSDOF 5
ENDMDL
MODEL 3
REMARK VINA RESULT:      -8.5      3.641      6.760
REMARK  5 active torsions:
REMARK  status: ('A' for Active; 'I' for Inactive)
REMARK    1  A    between atoms: C_2  and  C_3 
REMARK       I    between atoms: C_2  and  N_34 
REMARK    2  A    between atoms: N_6  and  C_7 
REMARK    3  A    between atoms: N_11  and  C_12 
REMARK    4  A    between atoms: C_12  and  C_13 
REMARK    5  A    between atoms: C_13  and  N_14 
ROOT
HETATM    1  C   UNK N   1      37.837  36.366  52.948  0.00  0.00     0.126 A 
HETATM    2  N   UNK N   1      38.900  36.316  52.127  0.00  0.00    -0.292 N 
ATOM      3  HN  UNK N   1      39.750  35.781  52.303  1.00  0.00     0.187 HD
HETATM    4  N   UNK N   1      38.680  37.066  51.054  0.00  0.00    -0.284 N 
HETATM    5  C   UNK N   1      37.430  37.623  51.157  0.00  0.00     0.072 A 
HETATM    6  C   UNK N   1      36.894  37.219  52.390  0.00  0.00     0.019 A 
HETATM    7  C   UNK N   1      35.590  37.673  52.997  0.00  0.00     0.189 C 
HETATM    8  S   UNK N   1      35.370  39.372  52.454  0.00  0.00     0.180 S 
HETATM    9  O   UNK N   1      36.281  40.328  53.240  0.00  0.00    -0.222 OA
HETATM   10  O   UNK N   1      33.960  39.896  52.759  0.00  0.00    -0.222 OA
HETATM   11  C   UNK N   1      35.745  39.467  50.727  0.00  0.00     0.072 A 
HETATM   12  C   UNK N   1      35.066  40.363  49.894  0.00  0.00     0.024 A 
HETATM   13  C   UNK N   1      35.326  40.372  48.524  0.00  0.00     0.002 A 
HETATM   14  C   UNK N   1      36.248  39.476  47.988  0.00  0.00     0.001 A 
HETATM   15  C   UNK N   1      36.931  38.586  48.822  0.00  0.00     0.015 A 
HETATM   16  C   UNK N   1      36.716  38.578  50.211  0.00  0.00     0.014 A 
ENDROOT
BRANCH   4  17
HETATM   17  C   UNK N   1      39.807  37.323  50.133  0.00  0.00     0.137 C 
HETATM   18  C   UNK N   1      40.852  36.198  50.063  0.00  0.00     0.031 C 
HETATM   19  C   UNK N   1      41.820  36.423  48.884  0.00  0.00     0.032 C 
HETATM   20  C   UNK N   1      41.860  37.895  48.417  0.00  0.00     0.272 C 
HETATM   21  N   UNK N   1      41.746  38.849  49.537  0.00  0.00     0.092 N 
HETATM   22  C   UNK N   1      40.454  38.727  50.278  0.00  0.00     0.299 C 
BRANCH  21  23
HETATM   23  C   UNK N   1      42.952  38.877  50.392  0.00  0.00     0.302 C 
BRANCH  23  24
HETATM   24  C   UNK N   1      42.558  39.072  51.866  0.00  0.00     0.302 C 
BRANCH  24  25
HETATM   25  N   UNK N   1      43.752  39.315  52.698  0.00  0.00     0.090 N 
HETATM   26  C   UNK N   1      44.925  38.475  52.315  0.00  0.00     0.275 C 
HETATM   27  C   UNK N   1      45.993  38.384  53.437  0.00  0.00     0.067 C 
HETATM   28  C   UNK N   1      46.004  39.716  54.180  0.00  0.00     0.173 C 
HETATM   29  F   UNK N   1      47.043  39.797  55.090  0.00  0.00    -0.249 F 
HETATM   30  C   UNK N   1      44.646  39.913  54.901  0.00  0.00     0.067 C 
HETATM   31  C   UNK N   1      43.481  39.242  54.137  0.00  0.00     0.275 C 
ENDBRANCH  24  25
ENDBRANCH  23  24
ENDBRANCH  21  23
ENDBRANCH   4  17
BRANCH   1  32
HETATM   32  C   UNK N   1      37.707  35.582  54.227  0.00  0.00     0.272 C 
HETATM   33  O   UNK N   1      37.273  34.441  54.150  0.00  0.00    -0.266 OA
HETATM   34  N   UNK N   1      38.093  36.064  55.465  0.00  0.00    -0.343 N 
HETATM   35  C   UNK N   1      38.084  35.125  56.599  0.00  0.00     0.152 C 
HETATM   36  C   UNK N   1      38.661  37.408  55.616  0.00  0.00     0.152 C 
HETATM   37  C   UNK N   1      38.476  35.756  57.940  0.00  0.00     0.187 C 
HETATM   38  O   UNK N   1      39.508  36.701  57.764  0.00  0.00    -0.388 OA
HETATM   39  C   UNK N   1      38.938  37.791  57.071  0.00  0.00     0.187 C 
ENDBRANCH   1  32
TORSDOF 5
ENDMDL
MODEL 4
REMARK VINA RESULT:      -8.4      2.934      3.920
REMARK  5 active torsions:
REMARK  status: ('A' for Active; 'I' for Inactive)
REMARK    1  A    between atoms: C_2  and  C_3 
REMARK       I    between atoms: C_2  and  N_34 
REMARK    2  A    between atoms: N_6  and  C_7 
REMARK    3  A    between atoms: N_11  and  C_12 
REMARK    4  A    between atoms: C_12  and  C_13 
REMARK    5  A    between atoms: C_13  and  N_14 
ROOT
HETATM    1  C   UNK N   1      40.036  38.408  49.896  0.00  0.00     0.126 A 
HETATM    2  N   UNK N   1      40.434  37.275  49.293  0.00  0.00    -0.292 N 
ATOM      3  HN  UNK N   1      39.854  36.707  48.675  1.00  0.00     0.187 HD
HETATM    4  N   UNK N   1      41.691  37.003  49.620  0.00  0.00    -0.284 N 
HETATM    5  C   UNK N   1      42.149  37.989  50.458  0.00  0.00     0.072 A 
HETATM    6  C   UNK N   1      41.083  38.875  50.681  0.00  0.00     0.019 A 
HETATM    7  C   UNK N   1      41.072  40.051  51.625  0.00  0.00     0.189 C 
HETATM    8  S   UNK N   1      42.126  39.575  53.001  0.00  0.00     0.180 S 
HETATM    9  O   UNK N   1      41.410  38.584  53.932  0.00  0.00    -0.222 OA
HETATM   10  O   UNK N   1      42.441  40.762  53.922  0.00  0.00    -0.222 OA
HETATM   11  C   UNK N   1      43.600  38.837  52.355  0.00  0.00     0.072 A 
HETATM   12  C   UNK N   1      44.825  38.990  53.013  0.00  0.00     0.024 A 
HETATM   13  C   UNK N   1      45.986  38.460  52.451  0.00  0.00     0.002 A 
HETATM   14  C   UNK N   1      45.923  37.798  51.227  0.00  0.00     0.001 A 
HETATM   15  C   UNK N   1      44.697  37.640  50.574  0.00  0.00     0.015 A 
HETATM   16  C   UNK N   1      43.505  38.131  51.134  0.00  0.00     0.014 A 
ENDROOT
BRANCH   4  17
HETATM   17  C   UNK N   1      42.249  35.689  49.239  0.00  0.00     0.137 C 
HETATM   18  C   UNK N   1      43.505  35.753  48.355  0.00  0.00     0.031 C 
HETATM   19  C   UNK N   1      44.170  34.366  48.249  0.00  0.00     0.032 C 
HETATM   20  C   UNK N   1      43.197  33.210  48.571  0.00  0.00     0.272 C 
HETATM   21  N   UNK N   1      41.829  33.469  48.082  0.00  0.00     0.092 N 
HETATM   22  C   UNK N   1      41.202  34.671  48.709  0.00  0.00     0.299 C 
BRANCH  21  23
HETATM   23  C   UNK N   1      41.726  33.413  46.607  0.00  0.00     0.302 C 
BRANCH  23  24
HETATM   24  C   UNK N   1      40.293  33.747  46.159  0.00  0.00     0.302 C 
BRANCH  24  25
HETATM   25  N   UNK N   1      40.285  34.247  44.770  0.00  0.00     0.090 N 
HETATM   26  C   UNK N   1      39.443  33.430  43.849  0.00  0.00     0.275 C 
HETATM   27  C   UNK N   1      39.789  33.657  42.353  0.00  0.00     0.067 C 
HETATM   28  C   UNK N   1      40.206  35.115  42.188  0.00  0.00     0.173 C 
HETATM   29  F   UNK N   1      40.370  35.464  40.860  0.00  0.00    -0.249 F 
HETATM   30  C   UNK N   1      41.519  35.366  42.972  0.00  0.00     0.067 C 
HETATM   31  C   UNK N   1      41.628  34.467  44.225  0.00  0.00     0.275 C 
ENDBRANCH  24  25
ENDBRANCH  23  24
ENDBRANCH  21  23
ENDBRANCH   4  17
BRANCH   1  32
HETATM   32  C   UNK N   1      38.692  39.055  49.699  0.00  0.00     0.272 C 
HETATM   33  O   UNK N   1      38.533  39.736  48.695  0.00  0.00    -0.266 OA
HETATM   34  N   UNK N   1      37.623  38.884  50.561  0.00  0.00    -0.343 N 
HETATM   35  C   UNK N   1      36.316  39.423  50.149  0.00  0.00     0.152 C 
HETATM   36  C   UNK N   1      37.738  38.046  51.760  0.00  0.00     0.152 C 
HETATM   37  C   UNK N   1      35.203  39.233  51.185  0.00  0.00     0.187 C 
HETATM   38  O   UNK N   1      35.325  37.982  51.826  0.00  0.00    -0.388 OA
HETATM   39  C   UNK N   1      36.482  38.056  52.632  0.00  0.00     0.187 C 
ENDBRANCH   1  32
TORSDOF 5
ENDMDL
MODEL 5
REMARK VINA RESULT:      -8.2      3.591      4.942
REMARK  5 active torsions:
REMARK  status: ('A' for Active; 'I' for Inactive)
REMARK    1  A    between atoms: C_2  and  C_3 
REMARK       I    between atoms: C_2  and  N_34 
REMARK    2  A    between atoms: N_6  and  C_7 
REMARK    3  A    between atoms: N_11  and  C_12 
REMARK    4  A    between atoms: C_12  and  C_13 
REMARK    5  A    between atoms: C_13  and  N_14 
ROOT
HETATM    1  C   UNK N   1      38.685  38.702  53.212  0.00  0.00     0.126 A 
HETATM    2  N   UNK N   1      39.892  39.289  53.148  0.00  0.00    -0.292 N 
ATOM      3  HN  UNK N   1      40.346  39.602  52.290  1.00  0.00     0.187 HD
HETATM    4  N   UNK N   1      40.407  39.401  54.366  0.00  0.00    -0.284 N 
HETATM    5  C   UNK N   1      39.513  38.884  55.270  0.00  0.00     0.072 A 
HETATM    6  C   UNK N   1      38.421  38.390  54.539  0.00  0.00     0.019 A 
HETATM    7  C   UNK N   1      37.242  37.626  55.089  0.00  0.00     0.189 C 
HETATM    8  S   UNK N   1      37.886  36.671  56.469  0.00  0.00     0.180 S 
HETATM    9  O   UNK N   1      38.682  35.452  55.977  0.00  0.00    -0.222 OA
HETATM   10  O   UNK N   1      36.764  36.046  57.309  0.00  0.00    -0.222 OA
HETATM   11  C   UNK N   1      38.929  37.718  57.443  0.00  0.00     0.072 A 
HETATM   12  C   UNK N   1      39.014  37.554  58.830  0.00  0.00     0.024 A 
HETATM   13  C   UNK N   1      39.786  38.434  59.587  0.00  0.00     0.002 A 
HETATM   14  C   UNK N   1      40.455  39.483  58.961  0.00  0.00     0.001 A 
HETATM   15  C   UNK N   1      40.377  39.641  57.575  0.00  0.00     0.015 A 
HETATM   16  C   UNK N   1      39.635  38.748  56.781  0.00  0.00     0.014 A 
ENDROOT
BRANCH   4  17
HETATM   17  C   UNK N   1      41.819  39.820  54.497  0.00  0.00     0.137 C 
HETATM   18  C   UNK N   1      42.259  40.920  53.517  0.00  0.00     0.031 C 
HETATM   19  C   UNK N   1      43.637  41.485  53.913  0.00  0.00     0.032 C 
HETATM   20  C   UNK N   1      44.447  40.516  54.803  0.00  0.00     0.272 C 
HETATM   21  N   UNK N   1      44.253  39.103  54.425  0.00  0.00     0.092 N 
HETATM   22  C   UNK N   1      42.836  38.649  54.571  0.00  0.00     0.299 C 
BRANCH  21  23
HETATM   23  C   UNK N   1      44.884  38.762  53.131  0.00  0.00     0.302 C 
BRANCH  23  24
HETATM   24  C   UNK N   1      43.939  37.887  52.291  0.00  0.00     0.302 C 
BRANCH  24  25
HETATM   25  N   UNK N   1      43.764  38.456  50.940  0.00  0.00     0.090 N 
HETATM   26  C   UNK N   1      42.335  38.634  50.550  0.00  0.00     0.275 C 
HETATM   27  C   UNK N   1      42.142  38.781  49.017  0.00  0.00     0.067 C 
HETATM   28  C   UNK N   1      43.358  39.517  48.463  0.00  0.00     0.173 C 
HETATM   29  F   UNK N   1      43.204  39.850  47.129  0.00  0.00    -0.249 F 
HETATM   30  C   UNK N   1      44.620  38.637  48.650  0.00  0.00     0.067 C 
HETATM   31  C   UNK N   1      44.523  37.743  49.908  0.00  0.00     0.275 C 
ENDBRANCH  24  25
ENDBRANCH  23  24
ENDBRANCH  21  23
ENDBRANCH   4  17
BRANCH   1  32
HETATM   32  C   UNK N   1      37.780  38.475  52.030  0.00  0.00     0.272 C 
HETATM   33  O   UNK N   1      36.932  39.325  51.796  0.00  0.00    -0.266 OA
HETATM   34  N   UNK N   1      37.888  37.392  51.177  0.00  0.00    -0.343 N 
HETATM   35  C   UNK N   1      37.062  37.393  49.959  0.00  0.00     0.152 C 
HETATM   36  C   UNK N   1      38.912  36.361  51.381  0.00  0.00     0.152 C 
HETATM   37  C   UNK N   1      37.207  36.133  49.099  0.00  0.00     0.187 C 
HETATM   38  O   UNK N   1      38.544  35.684  49.093  0.00  0.00    -0.388 OA
HETATM   39  C   UNK N   1      38.811  35.199  50.391  0.00  0.00     0.187 C 
ENDBRANCH   1  32
TORSDOF 5
ENDMDL
MODEL 6
REMARK VINA RESULT:      -8.2      7.169     11.735
REMARK  5 active torsions:
REMARK  status: ('A' for Active; 'I' for Inactive)
REMARK    1  A    between atoms: C_2  and  C_3 
REMARK       I    between atoms: C_2  and  N_34 
REMARK    2  A    between atoms: N_6  and  C_7 
REMARK    3  A    between atoms: N_11  and  C_12 
REMARK    4  A    between atoms: C_12  and  C_13 
REMARK    5  A    between atoms: C_13  and  N_14 
ROOT
HETATM    1  C   UNK N   1      40.095  33.655  45.616  0.00  0.00     0.126 A 
HETATM    2  N   UNK N   1      38.962  33.019  45.956  0.00  0.00    -0.292 N 
ATOM      3  HN  UNK N   1      38.750  32.658  46.886  1.00  0.00     0.187 HD
HETATM    4  N   UNK N   1      38.158  32.930  44.904  0.00  0.00    -0.284 N 
HETATM    5  C   UNK N   1      38.768  33.533  43.833  0.00  0.00     0.072 A 
HETATM    6  C   UNK N   1      40.033  33.965  44.264  0.00  0.00     0.019 A 
HETATM    7  C   UNK N   1      41.113  34.579  43.409  0.00  0.00     0.189 C 
HETATM    8  S   UNK N   1      40.945  33.812  41.792  0.00  0.00     0.180 S 
HETATM    9  O   UNK N   1      41.506  32.381  41.796  0.00  0.00    -0.222 OA
HETATM   10  O   UNK N   1      41.794  34.522  40.728  0.00  0.00    -0.222 OA
HETATM   11  C   UNK N   1      39.231  33.786  41.354  0.00  0.00     0.072 A 
HETATM   12  C   UNK N   1      38.830  33.916  40.020  0.00  0.00     0.024 A 
HETATM   13  C   UNK N   1      37.473  33.964  39.704  0.00  0.00     0.002 A 
HETATM   14  C   UNK N   1      36.522  33.901  40.720  0.00  0.00     0.001 A 
HETATM   15  C   UNK N   1      36.923  33.763  42.052  0.00  0.00     0.015 A 
HETATM   16  C   UNK N   1      38.284  33.676  42.397  0.00  0.00     0.014 A 
ENDROOT
BRANCH   4  17
HETATM   17  C   UNK N   1      36.956  32.076  45.008  0.00  0.00     0.137 C 
HETATM   18  C   UNK N   1      35.630  32.842  45.149  0.00  0.00     0.031 C 
HETATM   19  C   UNK N   1      34.429  31.894  44.963  0.00  0.00     0.032 C 
HETATM   20  C   UNK N   1      34.792  30.413  45.210  0.00  0.00     0.272 C 
HETATM   21  N   UNK N   1      35.768  30.244  46.303  0.00  0.00     0.092 N 
HETATM   22  C   UNK N   1      37.078  30.908  46.025  0.00  0.00     0.299 C 
BRANCH  21  23
HETATM   23  C   UNK N   1      35.196  30.535  47.636  0.00  0.00     0.302 C 
BRANCH  23  24
HETATM   24  C   UNK N   1      36.316  30.850  48.641  0.00  0.00     0.302 C 
BRANCH  24  25
HETATM   25  N   UNK N   1      36.024  32.098  49.373  0.00  0.00     0.090 N 
HETATM   26  C   UNK N   1      36.608  33.313  48.733  0.00  0.00     0.275 C 
HETATM   27  C   UNK N   1      36.706  34.519  49.705  0.00  0.00     0.067 C 
HETATM   28  C   UNK N   1      35.516  34.448  50.657  0.00  0.00     0.173 C 
HETATM   29  F   UNK N   1      35.418  35.574  51.454  0.00  0.00    -0.249 F 
HETATM   30  C   UNK N   1      35.639  33.179  51.539  0.00  0.00     0.067 C 
HETATM   31  C   UNK N   1      36.355  32.025  50.799  0.00  0.00     0.275 C 
ENDBRANCH  24  25
ENDBRANCH  23  24
ENDBRANCH  21  23
ENDBRANCH   4  17
BRANCH   1  32
HETATM   32  C   UNK N   1      41.205  33.996  46.574  0.00  0.00     0.272 C 
HETATM   33  O   UNK N   1      40.994  34.880  47.394  0.00  0.00    -0.266 OA
HETATM   34  N   UNK N   1      42.421  33.337  46.607  0.00  0.00    -0.343 N 
HETATM   35  C   UNK N   1      43.340  33.648  47.714  0.00  0.00     0.152 C 
HETATM   36  C   UNK N   1      42.719  32.241  45.678  0.00  0.00     0.152 C 
HETATM   37  C   UNK N   1      44.682  32.912  47.643  0.00  0.00     0.187 C 
HETATM   38  O   UNK N   1      44.504  31.595  47.169  0.00  0.00    -0.388 OA
HETATM   39  C   UNK N   1      44.145  31.703  45.808  0.00  0.00     0.187 C 
ENDBRANCH   1  32
TORSDOF 5
ENDMDL
MODEL 7
REMARK VINA RESULT:      -8.0      3.987      6.703
REMARK  5 active torsions:
REMARK  status: ('A' for Active; 'I' for Inactive)
REMARK    1  A    between atoms: C_2  and  C_3 
REMARK       I    between atoms: C_2  and  N_34 
REMARK    2  A    between atoms: N_6  and  C_7 
REMARK    3  A    between atoms: N_11  and  C_12 
REMARK    4  A    between atoms: C_12  and  C_13 
REMARK    5  A    between atoms: C_13  and  N_14 
ROOT
HETATM    1  C   UNK N   1      38.141  41.429  57.281  0.00  0.00     0.126 A 
HETATM    2  N   UNK N   1      37.540  40.634  56.380  0.00  0.00    -0.292 N 
ATOM      3  HN  UNK N   1      36.532  40.506  56.294  1.00  0.00     0.187 HD
HETATM    4  N   UNK N   1      38.451  40.040  55.620  0.00  0.00    -0.284 N 
HETATM    5  C   UNK N   1      39.696  40.458  56.018  0.00  0.00     0.072 A 
HETATM    6  C   UNK N   1      39.515  41.317  57.115  0.00  0.00     0.019 A 
HETATM    7  C   UNK N   1      40.600  41.933  57.963  0.00  0.00     0.189 C 
HETATM    8  S   UNK N   1      41.931  40.726  57.996  0.00  0.00     0.180 S 
HETATM    9  O   UNK N   1      41.600  39.560  58.939  0.00  0.00    -0.222 OA
HETATM   10  O   UNK N   1      43.221  41.309  58.592  0.00  0.00    -0.222 OA
HETATM   11  C   UNK N   1      42.185  40.119  56.353  0.00  0.00     0.072 A 
HETATM   12  C   UNK N   1      43.462  39.756  55.912  0.00  0.00     0.024 A 
HETATM   13  C   UNK N   1      43.651  39.347  54.592  0.00  0.00     0.002 A 
HETATM   14  C   UNK N   1      42.571  39.319  53.714  0.00  0.00     0.001 A 
HETATM   15  C   UNK N   1      41.294  39.674  54.157  0.00  0.00     0.015 A 
HETATM   16  C   UNK N   1      41.066  40.056  55.491  0.00  0.00     0.014 A 
ENDROOT
BRANCH   4  17
HETATM   17  C   UNK N   1      38.012  38.960  54.711  0.00  0.00     0.137 C 
HETATM   18  C   UNK N   1      38.535  37.560  55.072  0.00  0.00     0.031 C 
HETATM   19  C   UNK N   1      37.805  36.476  54.254  0.00  0.00     0.032 C 
HETATM   20  C   UNK N   1      37.163  37.032  52.964  0.00  0.00     0.272 C 
HETATM   21  N   UNK N   1      37.983  38.082  52.329  0.00  0.00     0.092 N 
HETATM   22  C   UNK N   1      38.173  39.282  53.199  0.00  0.00     0.299 C 
BRANCH  21  23
HETATM   23  C   UNK N   1      39.224  37.552  51.723  0.00  0.00     0.302 C 
BRANCH  23  24
HETATM   24  C   UNK N   1      39.751  38.523  50.652  0.00  0.00     0.302 C 
BRANCH  24  25
HETATM   25  N   UNK N   1      41.225  38.469  50.580  0.00  0.00     0.090 N 
HETATM   26  C   UNK N   1      41.800  39.341  49.515  0.00  0.00     0.275 C 
HETATM   27  C   UNK N   1      43.252  38.948  49.133  0.00  0.00     0.067 C 
HETATM   28  C   UNK N   1      43.944  38.437  50.393  0.00  0.00     0.173 C 
HETATM   29  F   UNK N   1      45.296  38.222  50.196  0.00  0.00    -0.249 F 
HETATM   30  C   UNK N   1      43.258  37.128  50.859  0.00  0.00     0.067 C 
HETATM   31  C   UNK N   1      41.752  37.103  50.506  0.00  0.00     0.275 C 
ENDBRANCH  24  25
ENDBRANCH  23  24
ENDBRANCH  21  23
ENDBRANCH   4  17
BRANCH   1  32
HETATM   32  C   UNK N   1      37.416  42.310  58.263  0.00  0.00     0.272 C 
HETATM   33  O   UNK N   1      37.203  41.858  59.380  0.00  0.00    -0.266 OA
HETATM   34  N   UNK N   1      37.025  43.608  57.987  0.00  0.00    -0.343 N 
HETATM   35  C   UNK N   1      36.494  44.415  59.097  0.00  0.00     0.152 C 
HETATM   36  C   UNK N   1      37.290  44.222  56.681  0.00  0.00     0.152 C 
HETATM   37  C   UNK N   1      36.039  45.821  58.691  0.00  0.00     0.187 C 
HETATM   38  O   UNK N   1      36.907  46.366  57.722  0.00  0.00    -0.388 OA
HETATM   39  C   UNK N   1      36.700  45.626  56.538  0.00  0.00     0.187 C 
ENDBRANCH   1  32
TORSDOF 5
ENDMDL
MODEL 8
REMARK VINA RESULT:      -8.0      3.711      6.132
REMARK  5 active torsions:
REMARK  status: ('A' for Active; 'I' for Inactive)
REMARK    1  A    between atoms: C_2  and  C_3 
REMARK       I    between atoms: C_2  and  N_34 
REMARK    2  A    between atoms: N_6  and  C_7 
REMARK    3  A    between atoms: N_11  and  C_12 
REMARK    4  A    between atoms: C_12  and  C_13 
REMARK    5  A    between atoms: C_13  and  N_14 
ROOT
HETATM    1  C   UNK N   1      42.228  39.221  52.397  0.00  0.00     0.126 A 
HETATM    2  N   UNK N   1      41.878  38.235  51.554  0.00  0.00    -0.292 N 
ATOM      3  HN  UNK N   1      40.921  37.932  51.373  1.00  0.00     0.187 HD
HETATM    4  N   UNK N   1      42.961  37.713  50.992  0.00  0.00    -0.284 N 
HETATM    5  C   UNK N   1      44.065  38.376  51.466  0.00  0.00     0.072 A 
HETATM    6  C   UNK N   1      43.613  39.319  52.404  0.00  0.00     0.019 A 
HETATM    7  C   UNK N   1      44.470  40.204  53.274  0.00  0.00     0.189 C 
HETATM    8  S   UNK N   1      45.950  39.248  53.627  0.00  0.00     0.180 S 
HETATM    9  O   UNK N   1      45.673  38.165  54.682  0.00  0.00    -0.222 OA
HETATM   10  O   UNK N   1      47.046  40.103  54.277  0.00  0.00    -0.222 OA
HETATM   11  C   UNK N   1      46.509  38.497  52.125  0.00  0.00     0.072 A 
HETATM   12  C   UNK N   1      47.874  38.300  51.887  0.00  0.00     0.024 A 
HETATM   13  C   UNK N   1      48.297  37.771  50.668  0.00  0.00     0.002 A 
HETATM   14  C   UNK N   1      47.360  37.459  49.686  0.00  0.00     0.001 A 
HETATM   15  C   UNK N   1      45.997  37.649  49.927  0.00  0.00     0.015 A 
HETATM   16  C   UNK N   1      45.538  38.146  51.160  0.00  0.00     0.014 A 
ENDROOT
BRANCH   4  17
HETATM   17  C   UNK N   1      42.814  36.473  50.201  0.00  0.00     0.137 C 
HETATM   18  C   UNK N   1      42.968  36.655  48.682  0.00  0.00     0.031 C 
HETATM   19  C   UNK N   1      43.084  35.289  47.977  0.00  0.00     0.032 C 
HETATM   20  C   UNK N   1      42.510  34.130  48.821  0.00  0.00     0.272 C 
HETATM   21  N   UNK N   1      41.309  34.524  49.583  0.00  0.00     0.092 N 
HETATM   22  C   UNK N   1      41.577  35.610  50.574  0.00  0.00     0.299 C 
BRANCH  21  23
HETATM   23  C   UNK N   1      40.129  34.748  48.720  0.00  0.00     0.302 C 
BRANCH  23  24
HETATM   24  C   UNK N   1      39.274  35.901  49.273  0.00  0.00     0.302 C 
BRANCH  24  25
HETATM   25  N   UNK N   1      38.016  35.388  49.850  0.00  0.00     0.090 N 
HETATM   26  C   UNK N   1      37.948  35.513  51.335  0.00  0.00     0.275 C 
HETATM   27  C   UNK N   1      36.879  34.584  51.971  0.00  0.00     0.067 C 
HETATM   28  C   UNK N   1      35.716  34.473  50.990  0.00  0.00     0.173 C 
HETATM   29  F   UNK N   1      34.635  33.805  51.536  0.00  0.00    -0.249 F 
HETATM   30  C   UNK N   1      36.195  33.753  49.704  0.00  0.00     0.067 C 
HETATM   31  C   UNK N   1      37.687  34.030  49.406  0.00  0.00     0.275 C 
ENDBRANCH  24  25
ENDBRANCH  23  24
ENDBRANCH  21  23
ENDBRANCH   4  17
BRANCH   1  32
HETATM   32  C   UNK N   1      41.255  40.083  53.156  0.00  0.00     0.272 C 
HETATM   33  O   UNK N   1      40.836  41.089  52.600  0.00  0.00    -0.266 OA
HETATM   34  N   UNK N   1      40.778  39.774  54.418  0.00  0.00    -0.343 N 
HETATM   35  C   UNK N   1      39.692  40.606  54.963  0.00  0.00     0.152 C 
HETATM   36  C   UNK N   1      41.210  38.560  55.120  0.00  0.00     0.152 C 
HETATM   37  C   UNK N   1      39.262  40.225  56.384  0.00  0.00     0.187 C 
HETATM   38  O   UNK N   1      39.287  38.825  56.555  0.00  0.00    -0.388 OA
HETATM   39  C   UNK N   1      40.646  38.443  56.537  0.00  0.00     0.187 C 
ENDBRANCH   1  32
TORSDOF 5
ENDMDL
MODEL 9
REMARK VINA RESULT:      -7.7      5.832      8.911
REMARK  5 active torsions:
REMARK  status: ('A' for Active; 'I' for Inactive)
REMARK    1  A    between atoms: C_2  and  C_3 
REMARK       I    between atoms: C_2  and  N_34 
REMARK    2  A    between atoms: N_6  and  C_7 
REMARK    3  A    between atoms: N_11  and  C_12 
REMARK    4  A    between atoms: C_12  and  C_13 
REMARK    5  A    between atoms: C_13  and  N_14 
ROOT
HETATM    1  C   UNK N   1      37.943  34.305  49.374  0.00  0.00     0.126 A 
HETATM    2  N   UNK N   1      37.605  33.700  48.223  0.00  0.00    -0.292 N 
ATOM      3  HN  UNK N   1      38.032  33.887  47.316  1.00  0.00     0.187 HD
HETATM    4  N   UNK N   1      36.633  32.822  48.440  0.00  0.00    -0.284 N 
HETATM    5  C   UNK N   1      36.321  32.834  49.776  0.00  0.00     0.072 A 
HETATM    6  C   UNK N   1      37.123  33.815  50.382  0.00  0.00     0.019 A 
HETATM    7  C   UNK N   1      37.055  34.272  51.818  0.00  0.00     0.189 C 
HETATM    8  S   UNK N   1      35.326  34.132  52.288  0.00  0.00     0.180 S 
HETATM    9  O   UNK N   1      34.494  35.278  51.690  0.00  0.00    -0.222 OA
HETATM   10  O   UNK N   1      35.125  34.301  53.800  0.00  0.00    -0.222 OA
HETATM   11  C   UNK N   1      34.708  32.576  51.714  0.00  0.00     0.072 A 
HETATM   12  C   UNK N   1      33.732  31.882  52.437  0.00  0.00     0.024 A 
HETATM   13  C   UNK N   1      33.310  30.625  52.005  0.00  0.00     0.002 A 
HETATM   14  C   UNK N   1      33.876  30.059  50.865  0.00  0.00     0.001 A 
HETATM   15  C   UNK N   1      34.845  30.756  50.139  0.00  0.00     0.015 A 
HETATM   16  C   UNK N   1      35.264  32.040  50.530  0.00  0.00     0.014 A 
ENDROOT
BRANCH   4  17
HETATM   17  C   UNK N   1      35.967  32.207  47.272  0.00  0.00     0.137 C 
HETATM   18  C   UNK N   1      36.588  30.883  46.799  0.00  0.00     0.031 C 
HETATM   19  C   UNK N   1      35.668  30.183  45.777  0.00  0.00     0.032 C 
HETATM   20  C   UNK N   1      34.679  31.156  45.099  0.00  0.00     0.272 C 
HETATM   21  N   UNK N   1      35.273  32.484  44.846  0.00  0.00     0.092 N 
HETATM   22  C   UNK N   1      35.688  33.186  46.098  0.00  0.00     0.299 C 
BRANCH  21  23
HETATM   23  C   UNK N   1      36.296  32.461  43.778  0.00  0.00     0.302 C 
BRANCH  23  24
HETATM   24  C   UNK N   1      37.448  33.421  44.123  0.00  0.00     0.302 C 
BRANCH  24  25
HETATM   25  N   UNK N   1      37.728  34.327  42.992  0.00  0.00     0.090 N 
HETATM   26  C   UNK N   1      37.418  33.730  41.661  0.00  0.00     0.275 C 
HETATM   27  C   UNK N   1      38.123  34.465  40.490  0.00  0.00     0.067 C 
HETATM   28  C   UNK N   1      38.205  35.945  40.851  0.00  0.00     0.173 C 
HETATM   29  F   UNK N   1      38.664  36.715  39.798  0.00  0.00    -0.249 F 
HETATM   30  C   UNK N   1      39.128  36.122  42.083  0.00  0.00     0.067 C 
HETATM   31  C   UNK N   1      39.078  34.899  43.028  0.00  0.00     0.275 C 
ENDBRANCH  24  25
ENDBRANCH  23  24
ENDBRANCH  21  23
ENDBRANCH   4  17
BRANCH   1  32
HETATM   32  C   UNK N   1      39.056  35.308  49.518  0.00  0.00     0.272 C 
HETATM   33  O   UNK N   1      40.202  34.882  49.550  0.00  0.00    -0.266 OA
HETATM   34  N   UNK N   1      38.855  36.676  49.568  0.00  0.00    -0.343 N 
HETATM   35  C   UNK N   1      40.042  37.546  49.522  0.00  0.00     0.152 C 
HETATM   36  C   UNK N   1      37.507  37.252  49.493  0.00  0.00     0.152 C 
HETATM   37  C   UNK N   1      39.730  39.042  49.634  0.00  0.00     0.187 C 
HETATM   38  O   UNK N   1      38.546  39.359  48.936  0.00  0.00    -0.388 OA
HETATM   39  C   UNK N   1      37.485  38.772  49.658  0.00  0.00     0.187 C 
ENDBRANCH   1  32
TORSDOF 5
ENDMDL
