MODEL 1
REMARK VINA RESULT:      -8.9      0.000      0.000
REMARK  5 active torsions:
REMARK  status: ('A' for Active; 'I' for Inactive)
REMARK    1  A    between atoms: C_2  and  C_3 
REMARK       I    between atoms: C_2  and  N_33 
REMARK    2  A    between atoms: N_6  and  C_7 
REMARK    3  A    between atoms: N_11  and  C_12 
REMARK    4  A    between atoms: C_12  and  C_13 
REMARK    5  A    between atoms: C_13  and  C_14 
ROOT
HETATM    1  C   UNK N   1      37.839  36.261  52.928  0.00  0.00     0.126 A 
HETATM    2  N   UNK N   1      38.970  36.409  52.224  0.00  0.00    -0.292 N 
ATOM      3  HN  UNK N   1      39.847  35.925  52.420  1.00  0.00     0.187 HD
HETATM    4  N   UNK N   1      38.787  37.274  51.239  0.00  0.00    -0.284 N 
HETATM    5  C   UNK N   1      37.483  37.704  51.269  0.00  0.00     0.072 A 
HETATM    6  C   UNK N   1      36.871  37.090  52.377  0.00  0.00     0.019 A 
HETATM    7  C   UNK N   1      35.453  37.291  52.845  0.00  0.00     0.189 C 
HETATM    8  S   UNK N   1      35.078  39.013  52.499  0.00  0.00     0.180 S 
HETATM    9  O   UNK N   1      35.762  39.947  53.510  0.00  0.00    -0.222 OA
HETATM   10  O   UNK N   1      33.585  39.325  52.679  0.00  0.00    -0.222 OA
HETATM   11  C   UNK N   1      35.631  39.387  50.857  0.00  0.00     0.072 A 
HETATM   12  C   UNK N   1      34.941  40.312  50.063  0.00  0.00     0.024 A 
HETATM   13  C   UNK N   1      35.353  40.547  48.753  0.00  0.00     0.002 A 
HETATM   14  C   UNK N   1      36.442  39.854  48.234  0.00  0.00     0.001 A 
HETATM   15  C   UNK N   1      37.137  38.938  49.027  0.00  0.00     0.015 A 
HETATM   16  C   UNK N   1      36.764  38.696  50.363  0.00  0.00     0.014 A 
ENDROOT
BRANCH   4  17
HETATM   17  C   UNK N   1      39.954  37.654  50.422  0.00  0.00     0.137 C 
HETATM   18  C   UNK N   1      40.868  36.490  50.015  0.00  0.00     0.031 C 
HETATM   19  C   UNK N   1      41.919  36.958  48.986  0.00  0.00     0.032 C 
HETATM   20  C   UNK N   1      42.163  38.487  49.023  0.00  0.00     0.272 C 
HETATM   21  N   UNK N   1      42.077  39.053  50.386  0.00  0.00     0.090 N 
HETATM   22  C   UNK N   1      40.721  38.879  50.984  0.00  0.00     0.299 C 
BRANCH  21  23
HETATM   23  C   UNK N   1      43.171  38.637  51.292  0.00  0.00     0.273 C 
BRANCH  23  24
HETATM   24  C   UNK N   1      42.868  38.976  52.762  0.00  0.00     0.035 C 
BRANCH  24  25
HETATM   25  C   UNK N   1      44.073  38.740  53.706  0.00  0.00    -0.009 C 
HETATM   26  C   UNK N   1      45.402  38.647  52.918  0.00  0.00     0.031 C 
HETATM   27  C   UNK N   1      46.581  38.999  53.828  0.00  0.00     0.168 C 
HETATM   28  O   UNK N   1      46.526  40.346  54.306  0.00  0.00    -0.391 OA
HETATM   29  C   UNK N   1      45.209  40.890  54.426  0.00  0.00     0.168 C 
HETATM   30  C   UNK N   1      44.169  39.827  54.801  0.00  0.00     0.031 C 
ENDBRANCH  24  25
ENDBRANCH  23  24
ENDBRANCH  21  23
ENDBRANCH   4  17
BRANCH   1  31
HETATM   31  C   UNK N   1      37.656  35.228  54.003  0.00  0.00     0.272 C 
HETATM   32  O   UNK N   1      37.210  34.141  53.668  0.00  0.00    -0.266 OA
HETATM   33  N   UNK N   1      38.106  35.400  55.302  0.00  0.00    -0.343 N 
HETATM   34  C   UNK N   1      38.487  36.689  55.874  0.00  0.00     0.152 C 
HETATM   35  C   UNK N   1      38.257  34.253  56.195  0.00  0.00     0.152 C 
HETATM   36  C   UNK N   1      37.784  36.840  57.232  0.00  0.00     0.187 C 
HETATM   37  O   UNK N   1      38.106  35.756  58.085  0.00  0.00    -0.388 OA
HETATM   38  C   UNK N   1      37.589  34.555  57.538  0.00  0.00     0.187 C 
ENDBRANCH   1  31
TORSDOF 5
ENDMDL
MODEL 2
REMARK VINA RESULT:      -8.8      8.147     10.425
REMARK  5 active torsions:
REMARK  status: ('A' for Active; 'I' for Inactive)
REMARK    1  A    between atoms: C_2  and  C_3 
REMARK       I    between atoms: C_2  and  N_33 
REMARK    2  A    between atoms: N_6  and  C_7 
REMARK    3  A    between atoms: N_11  and  C_12 
REMARK    4  A    between atoms: C_12  and  C_13 
REMARK    5  A    between atoms: C_13  and  C_14 
ROOT
HETATM    1  C   UNK N   1      38.676  33.571  43.898  0.00  0.00     0.126 A 
HETATM    2  N   UNK N   1      39.857  33.406  44.509  0.00  0.00    -0.292 N 
ATOM      3  HN  UNK N   1      39.985  33.309  45.516  1.00  0.00     0.187 HD
HETATM    4  N   UNK N   1      40.835  33.384  43.617  0.00  0.00    -0.284 N 
HETATM    5  C   UNK N   1      40.290  33.518  42.364  0.00  0.00     0.072 A 
HETATM    6  C   UNK N   1      38.902  33.681  42.533  0.00  0.00     0.019 A 
HETATM    7  C   UNK N   1      37.887  33.909  41.444  0.00  0.00     0.189 C 
HETATM    8  S   UNK N   1      38.727  34.911  40.212  0.00  0.00     0.180 S 
HETATM    9  O   UNK N   1      38.862  36.370  40.677  0.00  0.00    -0.222 OA
HETATM   10  O   UNK N   1      37.918  35.025  38.912  0.00  0.00    -0.222 OA
HETATM   11  C   UNK N   1      40.332  34.215  39.926  0.00  0.00     0.072 A 
HETATM   12  C   UNK N   1      40.925  34.282  38.658  0.00  0.00     0.024 A 
HETATM   13  C   UNK N   1      42.159  33.676  38.436  0.00  0.00     0.002 A 
HETATM   14  C   UNK N   1      42.793  32.996  39.470  0.00  0.00     0.001 A 
HETATM   15  C   UNK N   1      42.208  32.935  40.737  0.00  0.00     0.015 A 
HETATM   16  C   UNK N   1      40.975  33.559  41.003  0.00  0.00     0.014 A 
ENDROOT
BRANCH   4  17
HETATM   17  C   UNK N   1      42.223  33.324  44.110  0.00  0.00     0.137 C 
HETATM   18  C   UNK N   1      42.766  31.907  44.349  0.00  0.00     0.031 C 
HETATM   19  C   UNK N   1      44.281  31.949  44.642  0.00  0.00     0.032 C 
HETATM   20  C   UNK N   1      44.761  33.329  45.152  0.00  0.00     0.272 C 
HETATM   21  N   UNK N   1      43.767  34.005  46.011  0.00  0.00     0.090 N 
HETATM   22  C   UNK N   1      42.500  34.301  45.282  0.00  0.00     0.299 C 
BRANCH  21  23
HETATM   23  C   UNK N   1      43.547  33.354  47.322  0.00  0.00     0.273 C 
BRANCH  23  24
HETATM   24  C   UNK N   1      42.108  33.549  47.833  0.00  0.00     0.035 C 
BRANCH  24  25
HETATM   25  C   UNK N   1      42.037  34.273  49.201  0.00  0.00    -0.009 C 
HETATM   26  C   UNK N   1      43.107  35.385  49.310  0.00  0.00     0.031 C 
HETATM   27  C   UNK N   1      42.675  36.432  50.341  0.00  0.00     0.168 C 
HETATM   28  O   UNK N   1      41.473  37.110  49.969  0.00  0.00    -0.391 OA
HETATM   29  C   UNK N   1      40.578  36.347  49.154  0.00  0.00     0.168 C 
HETATM   30  C   UNK N   1      40.628  34.848  49.475  0.00  0.00     0.031 C 
ENDBRANCH  24  25
ENDBRANCH  23  24
ENDBRANCH  21  23
ENDBRANCH   4  17
BRANCH   1  31
HETATM   31  C   UNK N   1      37.352  33.468  44.601  0.00  0.00     0.272 C 
HETATM   32  O   UNK N   1      36.826  34.509  44.964  0.00  0.00    -0.266 OA
HETATM   33  N   UNK N   1      36.645  32.281  44.714  0.00  0.00    -0.343 N 
HETATM   34  C   UNK N   1      37.224  30.959  44.490  0.00  0.00     0.152 C 
HETATM   35  C   UNK N   1      35.224  32.291  45.050  0.00  0.00     0.152 C 
HETATM   36  C   UNK N   1      36.841  30.058  45.674  0.00  0.00     0.187 C 
HETATM   37  O   UNK N   1      35.434  30.011  45.833  0.00  0.00    -0.388 OA
HETATM   38  C   UNK N   1      34.955  31.298  46.183  0.00  0.00     0.187 C 
ENDBRANCH   1  31
TORSDOF 5
ENDMDL
MODEL 3
REMARK VINA RESULT:      -8.7      4.229      8.168
REMARK  5 active torsions:
REMARK  status: ('A' for Active; 'I' for Inactive)
REMARK    1  A    between atoms: C_2  and  C_3 
REMARK       I    between atoms: C_2  and  N_33 
REMARK    2  A    between atoms: N_6  and  C_7 
REMARK    3  A    between atoms: N_11  and  C_12 
REMARK    4  A    between atoms: C_12  and  C_13 
REMARK    5  A    between atoms: C_13  and  C_14 
ROOT
HETATM    1  C   UNK N   1      40.009  38.456  49.951  0.00  0.00     0.126 A 
HETATM    2  N   UNK N   1      40.442  37.323  49.380  0.00  0.00    -0.292 N 
ATOM      3  HN  UNK N   1      39.906  36.760  48.720  1.00  0.00     0.187 HD
HETATM    4  N   UNK N   1      41.666  37.040  49.795  0.00  0.00    -0.284 N 
HETATM    5  C   UNK N   1      42.077  38.027  50.657  0.00  0.00     0.072 A 
HETATM    6  C   UNK N   1      41.004  38.925  50.798  0.00  0.00     0.019 A 
HETATM    7  C   UNK N   1      40.965  40.146  51.680  0.00  0.00     0.189 C 
HETATM    8  S   UNK N   1      41.920  39.712  53.137  0.00  0.00     0.180 S 
HETATM    9  O   UNK N   1      41.133  38.768  54.060  0.00  0.00    -0.222 OA
HETATM   10  O   UNK N   1      42.200  40.930  54.028  0.00  0.00    -0.222 OA
HETATM   11  C   UNK N   1      43.422  38.930  52.609  0.00  0.00     0.072 A 
HETATM   12  C   UNK N   1      44.606  39.091  53.339  0.00  0.00     0.024 A 
HETATM   13  C   UNK N   1      45.791  38.521  52.876  0.00  0.00     0.002 A 
HETATM   14  C   UNK N   1      45.794  37.804  51.683  0.00  0.00     0.001 A 
HETATM   15  C   UNK N   1      44.612  37.636  50.958  0.00  0.00     0.015 A 
HETATM   16  C   UNK N   1      43.394  38.175  51.412  0.00  0.00     0.014 A 
ENDROOT
BRANCH   4  17
HETATM   17  C   UNK N   1      42.270  35.766  49.362  0.00  0.00     0.137 C 
HETATM   18  C   UNK N   1      43.461  35.905  48.404  0.00  0.00     0.031 C 
HETATM   19  C   UNK N   1      44.152  34.541  48.196  0.00  0.00     0.032 C 
HETATM   20  C   UNK N   1      43.229  33.339  48.514  0.00  0.00     0.272 C 
HETATM   21  N   UNK N   1      41.819  33.581  48.144  0.00  0.00     0.090 N 
HETATM   22  C   UNK N   1      41.223  34.718  48.903  0.00  0.00     0.299 C 
BRANCH  21  23
HETATM   23  C   UNK N   1      41.574  33.663  46.686  0.00  0.00     0.273 C 
BRANCH  23  24
HETATM   24  C   UNK N   1      42.432  32.659  45.896  0.00  0.00     0.035 C 
BRANCH  24  25
HETATM   25  C   UNK N   1      42.804  33.156  44.477  0.00  0.00    -0.009 C 
HETATM   26  C   UNK N   1      42.473  32.096  43.400  0.00  0.00     0.031 C 
HETATM   27  C   UNK N   1      42.286  32.768  42.037  0.00  0.00     0.168 C 
HETATM   28  O   UNK N   1      41.181  33.676  42.017  0.00  0.00    -0.391 OA
HETATM   29  C   UNK N   1      40.873  34.279  43.277  0.00  0.00     0.168 C 
HETATM   30  C   UNK N   1      42.121  34.501  44.140  0.00  0.00     0.031 C 
ENDBRANCH  24  25
ENDBRANCH  23  24
ENDBRANCH  21  23
ENDBRANCH   4  17
BRANCH   1  31
HETATM   31  C   UNK N   1      38.733  39.148  49.566  0.00  0.00     0.272 C 
HETATM   32  O   UNK N   1      38.784  39.952  48.646  0.00  0.00    -0.266 OA
HETATM   33  N   UNK N   1      37.498  38.807  50.093  0.00  0.00    -0.343 N 
HETATM   34  C   UNK N   1      37.316  38.007  51.302  0.00  0.00     0.152 C 
HETATM   35  C   UNK N   1      36.265  39.221  49.428  0.00  0.00     0.152 C 
HETATM   36  C   UNK N   1      36.311  38.731  52.211  0.00  0.00     0.187 C 
HETATM   37  O   UNK N   1      35.092  38.960  51.528  0.00  0.00    -0.388 OA
HETATM   38  C   UNK N   1      35.315  39.852  50.449  0.00  0.00     0.187 C 
ENDBRANCH   1  31
TORSDOF 5
ENDMDL
MODEL 4
REMARK VINA RESULT:      -8.7      1.213      1.995
REMARK  5 active torsions:
REMARK  status: ('A' for Active; 'I' for Inactive)
REMARK    1  A    between atoms: C_2  and  C_3 
REMARK       I    between atoms: C_2  and  N_33 
REMARK    2  A    between atoms: N_6  and  C_7 
REMARK    3  A    between atoms: N_11  and  C_12 
REMARK    4  A    between atoms: C_12  and  C_13 
REMARK    5  A    between atoms: C_13  and  C_14 
ROOT
HETATM    1  C   UNK N   1      37.862  36.250  52.907  0.00  0.00     0.126 A 
HETATM    2  N   UNK N   1      38.984  36.397  52.187  0.00  0.00    -0.292 N 
ATOM      3  HN  UNK N   1      39.863  35.913  52.371  1.00  0.00     0.187 HD
HETATM    4  N   UNK N   1      38.787  37.259  51.202  0.00  0.00    -0.284 N 
HETATM    5  C   UNK N   1      37.483  37.689  51.249  0.00  0.00     0.072 A 
HETATM    6  C   UNK N   1      36.887  37.078  52.367  0.00  0.00     0.019 A 
HETATM    7  C   UNK N   1      35.476  37.281  52.855  0.00  0.00     0.189 C 
HETATM    8  S   UNK N   1      35.096  39.002  52.510  0.00  0.00     0.180 S 
HETATM    9  O   UNK N   1      35.794  39.939  53.509  0.00  0.00    -0.222 OA
HETATM   10  O   UNK N   1      33.606  39.315  52.710  0.00  0.00    -0.222 OA
HETATM   11  C   UNK N   1      35.626  39.372  50.859  0.00  0.00     0.072 A 
HETATM   12  C   UNK N   1      34.925  40.295  50.073  0.00  0.00     0.024 A 
HETATM   13  C   UNK N   1      35.319  40.527  48.757  0.00  0.00     0.002 A 
HETATM   14  C   UNK N   1      36.401  39.833  48.224  0.00  0.00     0.001 A 
HETATM   15  C   UNK N   1      37.106  38.918  49.010  0.00  0.00     0.015 A 
HETATM   16  C   UNK N   1      36.752  38.680  50.351  0.00  0.00     0.014 A 
ENDROOT
BRANCH   4  17
HETATM   17  C   UNK N   1      39.942  37.637  50.368  0.00  0.00     0.137 C 
HETATM   18  C   UNK N   1      40.902  36.487  50.029  0.00  0.00     0.031 C 
HETATM   19  C   UNK N   1      41.938  36.937  48.978  0.00  0.00     0.032 C 
HETATM   20  C   UNK N   1      42.124  38.474  48.930  0.00  0.00     0.272 C 
HETATM   21  N   UNK N   1      42.011  39.111  50.259  0.00  0.00     0.090 N 
HETATM   22  C   UNK N   1      40.661  38.919  50.863  0.00  0.00     0.299 C 
BRANCH  21  23
HETATM   23  C   UNK N   1      43.116  38.787  51.189  0.00  0.00     0.273 C 
BRANCH  23  24
HETATM   24  C   UNK N   1      42.673  38.850  52.662  0.00  0.00     0.035 C 
BRANCH  24  25
HETATM   25  C   UNK N   1      43.848  38.714  53.661  0.00  0.00    -0.009 C 
HETATM   26  C   UNK N   1      45.214  38.720  52.935  0.00  0.00     0.031 C 
HETATM   27  C   UNK N   1      46.320  39.168  53.895  0.00  0.00     0.168 C 
HETATM   28  O   UNK N   1      46.140  40.509  54.356  0.00  0.00    -0.391 OA
HETATM   29  C   UNK N   1      44.780  40.951  54.411  0.00  0.00     0.168 C 
HETATM   30  C   UNK N   1      43.809  39.813  54.749  0.00  0.00     0.031 C 
ENDBRANCH  24  25
ENDBRANCH  23  24
ENDBRANCH  21  23
ENDBRANCH   4  17
BRANCH   1  31
HETATM   31  C   UNK N   1      37.694  35.220  53.987  0.00  0.00     0.272 C 
HETATM   32  O   UNK N   1      38.042  35.530  55.117  0.00  0.00    -0.266 OA
HETATM   33  N   UNK N   1      37.033  34.019  53.792  0.00  0.00    -0.343 N 
HETATM   34  C   UNK N   1      36.731  33.454  52.478  0.00  0.00     0.152 C 
HETATM   35  C   UNK N   1      36.560  33.236  54.930  0.00  0.00     0.152 C 
HETATM   36  C   UNK N   1      37.176  31.984  52.473  0.00  0.00     0.187 C 
HETATM   37  O   UNK N   1      36.552  31.268  53.524  0.00  0.00    -0.388 OA
HETATM   38  C   UNK N   1      36.995  31.777  54.770  0.00  0.00     0.187 C 
ENDBRANCH   1  31
TORSDOF 5
ENDMDL
MODEL 5
REMARK VINA RESULT:      -8.4      3.442      7.873
REMARK  5 active torsions:
REMARK  status: ('A' for Active; 'I' for Inactive)
REMARK    1  A    between atoms: C_2  and  C_3 
REMARK       I    between atoms: C_2  and  N_33 
REMARK    2  A    between atoms: N_6  and  C_7 
REMARK    3  A    between atoms: N_11  and  C_12 
REMARK    4  A    between atoms: C_12  and  C_13 
REMARK    5  A    between atoms: C_13  and  C_14 
ROOT
HETATM    1  C   UNK N   1      42.252  39.151  52.480  0.00  0.00     0.126 A 
HETATM    2  N   UNK N   1      41.883  38.187  51.625  0.00  0.00    -0.292 N 
ATOM      3  HN  UNK N   1      40.921  37.897  51.452  1.00  0.00     0.187 HD
HETATM    4  N   UNK N   1      42.948  37.665  51.036  0.00  0.00    -0.284 N 
HETATM    5  C   UNK N   1      44.067  38.316  51.496  0.00  0.00     0.072 A 
HETATM    6  C   UNK N   1      43.637  39.249  52.457  0.00  0.00     0.019 A 
HETATM    7  C   UNK N   1      44.511  40.166  53.272  0.00  0.00     0.189 C 
HETATM    8  S   UNK N   1      46.012  39.233  53.590  0.00  0.00     0.180 S 
HETATM    9  O   UNK N   1      45.785  38.159  54.664  0.00  0.00    -0.222 OA
HETATM   10  O   UNK N   1      47.120  40.111  54.191  0.00  0.00    -0.222 OA
HETATM   11  C   UNK N   1      46.531  38.474  52.073  0.00  0.00     0.072 A 
HETATM   12  C   UNK N   1      47.892  38.290  51.795  0.00  0.00     0.024 A 
HETATM   13  C   UNK N   1      48.283  37.749  50.572  0.00  0.00     0.002 A 
HETATM   14  C   UNK N   1      47.322  37.405  49.627  0.00  0.00     0.001 A 
HETATM   15  C   UNK N   1      45.964  37.580  49.907  0.00  0.00     0.015 A 
HETATM   16  C   UNK N   1      45.534  38.099  51.142  0.00  0.00     0.014 A 
ENDROOT
BRANCH   4  17
HETATM   17  C   UNK N   1      42.751  36.509  50.143  0.00  0.00     0.137 C 
HETATM   18  C   UNK N   1      42.726  36.843  48.645  0.00  0.00     0.031 C 
HETATM   19  C   UNK N   1      42.743  35.551  47.800  0.00  0.00     0.032 C 
HETATM   20  C   UNK N   1      42.245  34.310  48.582  0.00  0.00     0.272 C 
HETATM   21  N   UNK N   1      41.158  34.624  49.532  0.00  0.00     0.090 N 
HETATM   22  C   UNK N   1      41.594  35.579  50.592  0.00  0.00     0.299 C 
BRANCH  21  23
HETATM   23  C   UNK N   1      39.878  35.006  48.893  0.00  0.00     0.273 C 
BRANCH  23  24
HETATM   24  C   UNK N   1      38.718  35.058  49.904  0.00  0.00     0.035 C 
BRANCH  24  25
HETATM   25  C   UNK N   1      37.830  36.318  49.752  0.00  0.00    -0.009 C 
HETATM   26  C   UNK N   1      36.811  36.435  50.910  0.00  0.00     0.031 C 
HETATM   27  C   UNK N   1      36.373  37.892  51.082  0.00  0.00     0.168 C 
HETATM   28  O   UNK N   1      37.454  38.753  51.451  0.00  0.00    -0.391 OA
HETATM   29  C   UNK N   1      38.742  38.334  50.992  0.00  0.00     0.168 C 
HETATM   30  C   UNK N   1      38.674  37.608  49.642  0.00  0.00     0.031 C 
ENDBRANCH  24  25
ENDBRANCH  23  24
ENDBRANCH  21  23
ENDBRANCH   4  17
BRANCH   1  31
HETATM   31  C   UNK N   1      41.282  40.059  53.180  0.00  0.00     0.272 C 
HETATM   32  O   UNK N   1      40.867  41.026  52.557  0.00  0.00    -0.266 OA
HETATM   33  N   UNK N   1      40.730  39.769  54.417  0.00  0.00    -0.343 N 
HETATM   34  C   UNK N   1      41.258  38.761  55.333  0.00  0.00     0.152 C 
HETATM   35  C   UNK N   1      39.529  40.461  54.877  0.00  0.00     0.152 C 
HETATM   36  C   UNK N   1      41.380  39.395  56.727  0.00  0.00     0.187 C 
HETATM   37  O   UNK N   1      40.131  39.910  57.154  0.00  0.00    -0.388 OA
HETATM   38  C   UNK N   1      39.743  40.974  56.303  0.00  0.00     0.187 C 
ENDBRANCH   1  31
TORSDOF 5
ENDMDL
MODEL 6
REMARK VINA RESULT:      -8.3      3.583      5.626
REMARK  5 active torsions:
REMARK  status: ('A' for Active; 'I' for Inactive)
REMARK    1  A    between atoms: C_2  and  C_3 
REMARK       I    between atoms: C_2  and  N_33 
REMARK    2  A    between atoms: N_6  and  C_7 
REMARK    3  A    between atoms: N_11  and  C_12 
REMARK    4  A    between atoms: C_12  and  C_13 
REMARK    5  A    between atoms: C_13  and  C_14 
ROOT
HETATM    1  C   UNK N   1      39.682  39.628  53.130  0.00  0.00     0.126 A 
HETATM    2  N   UNK N   1      40.820  39.611  52.422  0.00  0.00    -0.292 N 
ATOM      3  HN  UNK N   1      41.611  40.238  52.573  1.00  0.00     0.187 HD
HETATM    4  N   UNK N   1      40.772  38.664  51.499  0.00  0.00    -0.284 N 
HETATM    5  C   UNK N   1      39.570  38.008  51.605  0.00  0.00     0.072 A 
HETATM    6  C   UNK N   1      38.841  38.645  52.625  0.00  0.00     0.019 A 
HETATM    7  C   UNK N   1      37.443  38.308  53.074  0.00  0.00     0.189 C 
HETATM    8  S   UNK N   1      36.576  37.798  51.586  0.00  0.00     0.180 S 
HETATM    9  O   UNK N   1      36.222  39.006  50.704  0.00  0.00    -0.222 OA
HETATM   10  O   UNK N   1      35.208  37.174  51.901  0.00  0.00    -0.222 OA
HETATM   11  C   UNK N   1      37.616  36.676  50.689  0.00  0.00     0.072 A 
HETATM   12  C   UNK N   1      37.061  35.629  49.943  0.00  0.00     0.024 A 
HETATM   13  C   UNK N   1      37.895  34.720  49.295  0.00  0.00     0.002 A 
HETATM   14  C   UNK N   1      39.277  34.850  49.402  0.00  0.00     0.001 A 
HETATM   15  C   UNK N   1      39.831  35.899  50.139  0.00  0.00     0.015 A 
HETATM   16  C   UNK N   1      39.017  36.849  50.783  0.00  0.00     0.014 A 
ENDROOT
BRANCH   4  17
HETATM   17  C   UNK N   1      41.892  38.566  50.545  0.00  0.00     0.137 C 
HETATM   18  C   UNK N   1      41.529  38.877  49.085  0.00  0.00     0.031 C 
HETATM   19  C   UNK N   1      42.802  38.967  48.217  0.00  0.00     0.032 C 
HETATM   20  C   UNK N   1      44.011  38.224  48.836  0.00  0.00     0.272 C 
HETATM   21  N   UNK N   1      43.625  36.992  49.555  0.00  0.00     0.090 N 
HETATM   22  C   UNK N   1      42.730  37.273  50.715  0.00  0.00     0.299 C 
BRANCH  21  23
HETATM   23  C   UNK N   1      43.126  35.905  48.683  0.00  0.00     0.273 C 
BRANCH  23  24
HETATM   24  C   UNK N   1      43.073  34.552  49.415  0.00  0.00     0.035 C 
BRANCH  24  25
HETATM   25  C   UNK N   1      42.777  33.358  48.474  0.00  0.00    -0.009 C 
HETATM   26  C   UNK N   1      43.000  33.736  46.990  0.00  0.00     0.031 C 
HETATM   27  C   UNK N   1      43.279  32.479  46.162  0.00  0.00     0.168 C 
HETATM   28  O   UNK N   1      44.480  31.813  46.558  0.00  0.00    -0.391 OA
HETATM   29  C   UNK N   1      44.839  31.983  47.932  0.00  0.00     0.168 C 
HETATM   30  C   UNK N   1      43.613  32.111  48.845  0.00  0.00     0.031 C 
ENDBRANCH  24  25
ENDBRANCH  23  24
ENDBRANCH  21  23
ENDBRANCH   4  17
BRANCH   1  31
HETATM   31  C   UNK N   1      39.478  40.464  54.361  0.00  0.00     0.272 C 
HETATM   32  O   UNK N   1      38.645  41.356  54.302  0.00  0.00    -0.266 OA
HETATM   33  N   UNK N   1      40.069  40.174  55.580  0.00  0.00    -0.343 N 
HETATM   34  C   UNK N   1      41.201  39.266  55.746  0.00  0.00     0.152 C 
HETATM   35  C   UNK N   1      39.556  40.762  56.814  0.00  0.00     0.152 C 
HETATM   36  C   UNK N   1      42.261  39.969  56.608  0.00  0.00     0.187 C 
HETATM   37  O   UNK N   1      41.709  40.375  57.848  0.00  0.00    -0.388 OA
HETATM   38  C   UNK N   1      40.712  41.357  57.622  0.00  0.00     0.187 C 
ENDBRANCH   1  31
TORSDOF 5
ENDMDL
MODEL 7
REMARK VINA RESULT:      -8.2      3.440      6.582
REMARK  5 active torsions:
REMARK  status: ('A' for Active; 'I' for Inactive)
REMARK    1  A    between atoms: C_2  and  C_3 
REMARK       I    between atoms: C_2  and  N_33 
REMARK    2  A    between atoms: N_6  and  C_7 
REMARK    3  A    between atoms: N_11  and  C_12 
REMARK    4  A    between atoms: C_12  and  C_13 
REMARK    5  A    between atoms: C_13  and  C_14 
ROOT
HETATM    1  C   UNK N   1      39.192  38.460  52.316  0.00  0.00     0.126 A 
HETATM    2  N   UNK N   1      40.074  38.060  51.389  0.00  0.00    -0.292 N 
ATOM      3  HN  UNK N   1      39.830  37.600  50.512  1.00  0.00     0.187 HD
HETATM    4  N   UNK N   1      41.307  38.348  51.774  0.00  0.00    -0.284 N 
HETATM    5  C   UNK N   1      41.250  38.982  52.991  0.00  0.00     0.072 A 
HETATM    6  C   UNK N   1      39.896  39.025  53.371  0.00  0.00     0.019 A 
HETATM    7  C   UNK N   1      39.341  39.585  54.655  0.00  0.00     0.189 C 
HETATM    8  S   UNK N   1      40.575  39.218  55.907  0.00  0.00     0.180 S 
HETATM    9  O   UNK N   1      40.545  37.733  56.302  0.00  0.00    -0.222 OA
HETATM   10  O   UNK N   1      40.289  39.944  57.229  0.00  0.00    -0.222 OA
HETATM   11  C   UNK N   1      42.171  39.641  55.260  0.00  0.00     0.072 A 
HETATM   12  C   UNK N   1      43.180  40.121  56.105  0.00  0.00     0.024 A 
HETATM   13  C   UNK N   1      44.408  40.507  55.571  0.00  0.00     0.002 A 
HETATM   14  C   UNK N   1      44.623  40.425  54.198  0.00  0.00     0.001 A 
HETATM   15  C   UNK N   1      43.620  39.938  53.356  0.00  0.00     0.015 A 
HETATM   16  C   UNK N   1      42.379  39.515  53.866  0.00  0.00     0.014 A 
ENDROOT
BRANCH   4  17
HETATM   17  C   UNK N   1      42.425  37.881  50.934  0.00  0.00     0.137 C 
HETATM   18  C   UNK N   1      42.610  38.647  49.616  0.00  0.00     0.031 C 
HETATM   19  C   UNK N   1      43.929  38.233  48.929  0.00  0.00     0.032 C 
HETATM   20  C   UNK N   1      44.441  36.846  49.388  0.00  0.00     0.272 C 
HETATM   21  N   UNK N   1      43.350  35.887  49.657  0.00  0.00     0.090 N 
HETATM   22  C   UNK N   1      42.462  36.339  50.767  0.00  0.00     0.299 C 
BRANCH  21  23
HETATM   23  C   UNK N   1      42.604  35.455  48.453  0.00  0.00     0.273 C 
BRANCH  23  24
HETATM   24  C   UNK N   1      42.177  33.978  48.534  0.00  0.00     0.035 C 
BRANCH  24  25
HETATM   25  C   UNK N   1      42.754  33.110  47.390  0.00  0.00    -0.009 C 
HETATM   26  C   UNK N   1      42.826  33.898  46.060  0.00  0.00     0.031 C 
HETATM   27  C   UNK N   1      43.884  33.284  45.140  0.00  0.00     0.168 C 
HETATM   28  O   UNK N   1      45.203  33.362  45.687  0.00  0.00    -0.391 OA
HETATM   29  C   UNK N   1      45.263  33.364  47.117  0.00  0.00     0.168 C 
HETATM   30  C   UNK N   1      44.142  32.531  47.750  0.00  0.00     0.031 C 
ENDBRANCH  24  25
ENDBRANCH  23  24
ENDBRANCH  21  23
ENDBRANCH   4  17
BRANCH   1  31
HETATM   31  C   UNK N   1      37.704  38.439  52.114  0.00  0.00     0.272 C 
HETATM   32  O   UNK N   1      37.233  39.240  51.320  0.00  0.00    -0.266 OA
HETATM   33  N   UNK N   1      36.879  37.469  52.661  0.00  0.00    -0.343 N 
HETATM   34  C   UNK N   1      37.273  36.578  53.749  0.00  0.00     0.152 C 
HETATM   35  C   UNK N   1      35.531  37.259  52.140  0.00  0.00     0.152 C 
HETATM   36  C   UNK N   1      36.165  36.601  54.814  0.00  0.00     0.187 C 
HETATM   37  O   UNK N   1      34.918  36.241  54.247  0.00  0.00    -0.388 OA
HETATM   38  C   UNK N   1      34.531  37.220  53.297  0.00  0.00     0.187 C 
ENDBRANCH   1  31
TORSDOF 5
ENDMDL
MODEL 8
REMARK VINA RESULT:      -8.1      2.781      6.295
REMARK  5 active torsions:
REMARK  status: ('A' for Active; 'I' for Inactive)
REMARK    1  A    between atoms: C_2  and  C_3 
REMARK       I    between atoms: C_2  and  N_33 
REMARK    2  A    between atoms: N_6  and  C_7 
REMARK    3  A    between atoms: N_11  and  C_12 
REMARK    4  A    between atoms: C_12  and  C_13 
REMARK    5  A    between atoms: C_13  and  C_14 
ROOT
HETATM    1  C   UNK N   1      38.825  38.479  53.120  0.00  0.00     0.126 A 
HETATM    2  N   UNK N   1      40.035  39.051  53.062  0.00  0.00    -0.292 N 
ATOM      3  HN  UNK N   1      40.506  39.336  52.203  1.00  0.00     0.187 HD
HETATM    4  N   UNK N   1      40.532  39.195  54.280  0.00  0.00    -0.284 N 
HETATM    5  C   UNK N   1      39.615  38.722  55.187  0.00  0.00     0.072 A 
HETATM    6  C   UNK N   1      38.527  38.220  54.451  0.00  0.00     0.019 A 
HETATM    7  C   UNK N   1      37.295  37.557  55.009  0.00  0.00     0.189 C 
HETATM    8  S   UNK N   1      37.859  36.638  56.446  0.00  0.00     0.180 S 
HETATM    9  O   UNK N   1      38.609  35.362  56.033  0.00  0.00    -0.222 OA
HETATM   10  O   UNK N   1      36.689  36.107  57.286  0.00  0.00    -0.222 OA
HETATM   11  C   UNK N   1      38.925  37.687  57.398  0.00  0.00     0.072 A 
HETATM   12  C   UNK N   1      38.970  37.583  58.794  0.00  0.00     0.024 A 
HETATM   13  C   UNK N   1      39.767  38.457  59.530  0.00  0.00     0.002 A 
HETATM   14  C   UNK N   1      40.506  39.438  58.877  0.00  0.00     0.001 A 
HETATM   15  C   UNK N   1      40.469  39.538  57.484  0.00  0.00     0.015 A 
HETATM   16  C   UNK N   1      39.696  38.654  56.708  0.00  0.00     0.014 A 
ENDROOT
BRANCH   4  17
HETATM   17  C   UNK N   1      41.909  39.705  54.414  0.00  0.00     0.137 C 
HETATM   18  C   UNK N   1      42.271  40.853  53.461  0.00  0.00     0.031 C 
HETATM   19  C   UNK N   1      43.641  41.457  53.834  0.00  0.00     0.032 C 
HETATM   20  C   UNK N   1      44.529  40.485  54.650  0.00  0.00     0.272 C 
HETATM   21  N   UNK N   1      44.366  39.074  54.242  0.00  0.00     0.090 N 
HETATM   22  C   UNK N   1      42.976  38.580  54.463  0.00  0.00     0.299 C 
BRANCH  21  23
HETATM   23  C   UNK N   1      44.887  38.762  52.892  0.00  0.00     0.273 C 
BRANCH  23  24
HETATM   24  C   UNK N   1      44.136  37.590  52.236  0.00  0.00     0.035 C 
BRANCH  24  25
HETATM   25  C   UNK N   1      44.061  37.697  50.693  0.00  0.00    -0.009 C 
HETATM   26  C   UNK N   1      43.380  36.455  50.070  0.00  0.00     0.031 C 
HETATM   27  C   UNK N   1      42.797  36.805  48.699  0.00  0.00     0.168 C 
HETATM   28  O   UNK N   1      41.767  37.793  48.774  0.00  0.00    -0.391 OA
HETATM   29  C   UNK N   1      41.884  38.705  49.870  0.00  0.00     0.168 C 
HETATM   30  C   UNK N   1      43.346  38.990  50.239  0.00  0.00     0.031 C 
ENDBRANCH  24  25
ENDBRANCH  23  24
ENDBRANCH  21  23
ENDBRANCH   4  17
BRANCH   1  31
HETATM   31  C   UNK N   1      37.916  38.331  51.933  0.00  0.00     0.272 C 
HETATM   32  O   UNK N   1      36.977  39.109  51.844  0.00  0.00    -0.266 OA
HETATM   33  N   UNK N   1      38.180  37.472  50.879  0.00  0.00    -0.343 N 
HETATM   34  C   UNK N   1      39.149  36.380  50.936  0.00  0.00     0.152 C 
HETATM   35  C   UNK N   1      37.499  37.635  49.597  0.00  0.00     0.152 C 
HETATM   36  C   UNK N   1      38.471  35.107  50.405  0.00  0.00     0.187 C 
HETATM   37  O   UNK N   1      37.969  35.315  49.097  0.00  0.00    -0.388 OA
HETATM   38  C   UNK N   1      36.939  36.287  49.135  0.00  0.00     0.187 C 
ENDBRANCH   1  31
TORSDOF 5
ENDMDL
MODEL 9
REMARK VINA RESULT:      -8.0      8.933     12.305
REMARK  5 active torsions:
REMARK  status: ('A' for Active; 'I' for Inactive)
REMARK    1  A    between atoms: C_2  and  C_3 
REMARK       I    between atoms: C_2  and  N_33 
REMARK    2  A    between atoms: N_6  and  C_7 
REMARK    3  A    between atoms: N_11  and  C_12 
REMARK    4  A    between atoms: C_12  and  C_13 
REMARK    5  A    between atoms: C_13  and  C_14 
ROOT
HETATM    1  C   UNK N   1      40.868  33.771  45.235  0.00  0.00     0.126 A 
HETATM    2  N   UNK N   1      39.682  33.351  45.697  0.00  0.00    -0.292 N 
ATOM      3  HN  UNK N   1      39.487  33.110  46.668  1.00  0.00     0.187 HD
HETATM    4  N   UNK N   1      38.800  33.296  44.711  0.00  0.00    -0.284 N 
HETATM    5  C   UNK N   1      39.409  33.713  43.553  0.00  0.00     0.072 A 
HETATM    6  C   UNK N   1      40.754  33.984  43.868  0.00  0.00     0.019 A 
HETATM    7  C   UNK N   1      41.828  34.427  42.910  0.00  0.00     0.189 C 
HETATM    8  S   UNK N   1      41.458  33.594  41.362  0.00  0.00     0.180 S 
HETATM    9  O   UNK N   1      41.838  32.107  41.423  0.00  0.00    -0.222 OA
HETATM   10  O   UNK N   1      42.306  34.131  40.200  0.00  0.00    -0.222 OA
HETATM   11  C   UNK N   1      39.723  33.763  41.037  0.00  0.00     0.072 A 
HETATM   12  C   UNK N   1      39.248  33.864  39.723  0.00  0.00     0.024 A 
HETATM   13  C   UNK N   1      37.888  34.058  39.489  0.00  0.00     0.002 A 
HETATM   14  C   UNK N   1      37.009  34.164  40.562  0.00  0.00     0.001 A 
HETATM   15  C   UNK N   1      37.480  34.056  41.872  0.00  0.00     0.015 A 
HETATM   16  C   UNK N   1      38.842  33.832  42.143  0.00  0.00     0.014 A 
ENDROOT
BRANCH   4  17
HETATM   17  C   UNK N   1      37.464  32.746  45.005  0.00  0.00     0.137 C 
HETATM   18  C   UNK N   1      36.672  33.503  46.080  0.00  0.00     0.031 C 
HETATM   19  C   UNK N   1      35.219  32.989  46.146  0.00  0.00     0.032 C 
HETATM   20  C   UNK N   1      35.054  31.561  45.569  0.00  0.00     0.272 C 
HETATM   21  N   UNK N   1      36.218  30.692  45.838  0.00  0.00     0.090 N 
HETATM   22  C   UNK N   1      37.466  31.207  45.203  0.00  0.00     0.299 C 
BRANCH  21  23
HETATM   23  C   UNK N   1      36.396  30.330  47.262  0.00  0.00     0.273 C 
BRANCH  23  24
HETATM   24  C   UNK N   1      35.495  29.154  47.679  0.00  0.00     0.035 C 
BRANCH  24  25
HETATM   25  C   UNK N   1      36.270  27.827  47.872  0.00  0.00    -0.009 C 
HETATM   26  C   UNK N   1      35.522  26.635  47.228  0.00  0.00     0.031 C 
HETATM   27  C   UNK N   1      36.506  25.507  46.907  0.00  0.00     0.168 C 
HETATM   28  O   UNK N   1      37.491  25.890  45.944  0.00  0.00    -0.391 OA
HETATM   29  C   UNK N   1      37.812  27.284  45.933  0.00  0.00     0.168 C 
HETATM   30  C   UNK N   1      37.714  27.918  47.326  0.00  0.00     0.031 C 
ENDBRANCH  24  25
ENDBRANCH  23  24
ENDBRANCH  21  23
ENDBRANCH   4  17
BRANCH   1  31
HETATM   31  C   UNK N   1      42.035  34.108  46.119  0.00  0.00     0.272 C 
HETATM   32  O   UNK N   1      41.939  35.106  46.819  0.00  0.00    -0.266 OA
HETATM   33  N   UNK N   1      43.125  33.270  46.287  0.00  0.00    -0.343 N 
HETATM   34  C   UNK N   1      43.447  32.158  45.397  0.00  0.00     0.152 C 
HETATM   35  C   UNK N   1      44.030  33.444  47.420  0.00  0.00     0.152 C 
HETATM   36  C   UNK N   1      44.933  32.258  45.019  0.00  0.00     0.187 C 
HETATM   37  O   UNK N   1      45.745  32.272  46.180  0.00  0.00    -0.388 OA
HETATM   38  C   UNK N   1      45.479  33.446  46.928  0.00  0.00     0.187 C 
ENDBRANCH   1  31
TORSDOF 5
ENDMDL
