MODEL 1
REMARK VINA RESULT:      -8.1      0.000      0.000
REMARK  6 active torsions:
REMARK  status: ('A' for Active; 'I' for Inactive)
REMARK    1  A    between atoms: O_2  and  C_3 
REMARK    2  A    between atoms: N_6  and  C_7 
REMARK    3  A    between atoms: C_7  and  C_8 
REMARK    4  A    between atoms: C_8  and  N_9 
REMARK    5  A    between atoms: C_13  and  N_14 
REMARK    6  A    between atoms: C_17  and  C_18 
REMARK       I    between atoms: C_18  and  N_20 
ROOT
HETATM    1  N   UNK N   1      41.315  38.905  52.680  0.00  0.00    -0.284 N 
HETATM    2  N   UNK N   1      40.031  38.851  53.025  0.00  0.00    -0.292 N 
ATOM      3  HN  UNK N   1      39.246  38.758  52.380  1.00  0.00     0.187 HD
HETATM    4  C   UNK N   1      39.935  38.942  54.371  0.00  0.00     0.126 A 
HETATM    5  C   UNK N   1      41.206  39.073  54.901  0.00  0.00     0.019 A 
HETATM    6  C   UNK N   1      42.078  39.045  53.809  0.00  0.00     0.072 A 
HETATM    7  C   UNK N   1      43.590  39.203  53.922  0.00  0.00     0.015 A 
HETATM    8  C   UNK N   1      44.497  38.738  52.943  0.00  0.00     0.018 A 
HETATM    9  C   UNK N   1      45.874  38.936  53.092  0.00  0.00     0.043 A 
HETATM   10  C   UNK N   1      46.377  39.591  54.214  0.00  0.00     0.117 A 
HETATM   11  F   UNK N   1      47.713  39.781  54.348  0.00  0.00    -0.206 F 
HETATM   12  C   UNK N   1      45.508  40.027  55.210  0.00  0.00     0.066 A 
HETATM   13  C   UNK N   1      44.132  39.826  55.073  0.00  0.00     0.075 A 
HETATM   14  S   UNK N   1      43.028  40.318  56.366  0.00  0.00     0.180 S 
HETATM   15  O   UNK N   1      42.665  41.803  56.219  0.00  0.00    -0.222 OA
HETATM   16  O   UNK N   1      43.718  40.266  57.737  0.00  0.00    -0.222 OA
HETATM   17  C   UNK N   1      41.556  39.298  56.350  0.00  0.00     0.189 C 
ENDROOT
BRANCH   1  18
HETATM   18  C   UNK N   1      41.768  38.936  51.271  0.00  0.00     0.137 C 
HETATM   19  C   UNK N   1      42.251  37.552  50.807  0.00  0.00     0.031 C 
HETATM   20  C   UNK N   1      41.072  36.602  50.621  0.00  0.00     0.032 C 
HETATM   21  C   UNK N   1      40.092  37.213  49.619  0.00  0.00     0.272 C 
HETATM   22  N   UNK N   1      39.581  38.519  50.098  0.00  0.00     0.092 N 
HETATM   23  C   UNK N   1      40.698  39.476  50.294  0.00  0.00     0.299 C 
BRANCH  22  24
HETATM   24  C   UNK N   1      38.597  39.027  49.113  0.00  0.00     0.291 C 
BRANCH  24  25
HETATM   25  C   UNK N   1      37.162  38.565  49.432  0.00  0.00     0.147 C 
BRANCH  25  26
HETATM   26  N   UNK N   1      36.827  38.642  50.869  0.00  0.00    -0.411 N 
HETATM   27  C   UNK N   1      35.682  39.532  51.192  0.00  0.00     0.119 C 
HETATM   28  C   UNK N   1      35.402  39.461  52.694  0.00  0.00     0.051 C 
HETATM   29  C   UNK N   1      34.972  38.036  53.123  0.00  0.00     0.124 C 
HETATM   30  C   UNK N   1      35.505  36.958  52.149  0.00  0.00     0.051 C 
HETATM   31  C   UNK N   1      36.881  37.344  51.602  0.00  0.00     0.119 C 
BRANCH  29  32
HETATM   32  O   UNK N   1      33.556  37.960  53.161  0.00  0.00    -0.391 OA
HETATM   33  C   UNK N   1      33.019  39.053  53.875  0.00  0.00     0.202 C 
ENDBRANCH  29  32
ENDBRANCH  25  26
ENDBRANCH  24  25
ENDBRANCH  22  24
ENDBRANCH   1  18
BRANCH   4  34
HETATM   34  C   UNK N   1      38.677  38.927  55.185  0.00  0.00     0.272 C 
HETATM   35  O   UNK N   1      38.390  37.882  55.754  0.00  0.00    -0.266 OA
HETATM   36  N   UNK N   1      37.873  40.029  55.381  0.00  0.00    -0.343 N 
HETATM   37  C   UNK N   1      38.261  41.340  54.853  0.00  0.00     0.152 C 
HETATM   38  C   UNK N   1      36.761  39.895  56.334  0.00  0.00     0.152 C 
HETATM   39  C   UNK N   1      37.282  42.460  55.228  0.00  0.00     0.187 C 
HETATM   40  O   UNK N   1      36.820  42.296  56.552  0.00  0.00    -0.388 OA
HETATM   41  C   UNK N   1      35.958  41.179  56.539  0.00  0.00     0.187 C 
ENDBRANCH   4  34
TORSDOF 6
ENDMDL
MODEL 2
REMARK VINA RESULT:      -8.0      3.837      6.147
REMARK  6 active torsions:
REMARK  status: ('A' for Active; 'I' for Inactive)
REMARK    1  A    between atoms: O_2  and  C_3 
REMARK    2  A    between atoms: N_6  and  C_7 
REMARK    3  A    between atoms: C_7  and  C_8 
REMARK    4  A    between atoms: C_8  and  N_9 
REMARK    5  A    between atoms: C_13  and  N_14 
REMARK    6  A    between atoms: C_17  and  C_18 
REMARK       I    between atoms: C_18  and  N_20 
ROOT
HETATM    1  N   UNK N   1      40.635  39.276  53.901  0.00  0.00    -0.284 N 
HETATM    2  N   UNK N   1      39.536  39.031  53.191  0.00  0.00    -0.292 N 
ATOM      3  HN  UNK N   1      38.582  39.042  53.551  1.00  0.00     0.187 HD
HETATM    4  C   UNK N   1      39.891  38.764  51.914  0.00  0.00     0.126 A 
HETATM    5  C   UNK N   1      41.269  38.826  51.812  0.00  0.00     0.019 A 
HETATM    6  C   UNK N   1      41.730  39.157  53.088  0.00  0.00     0.072 A 
HETATM    7  C   UNK N   1      43.204  39.290  53.453  0.00  0.00     0.015 A 
HETATM    8  C   UNK N   1      43.668  40.040  54.558  0.00  0.00     0.018 A 
HETATM    9  C   UNK N   1      45.034  40.103  54.857  0.00  0.00     0.043 A 
HETATM   10  C   UNK N   1      45.963  39.433  54.064  0.00  0.00     0.117 A 
HETATM   11  F   UNK N   1      47.284  39.497  54.363  0.00  0.00    -0.206 F 
HETATM   12  C   UNK N   1      45.536  38.717  52.949  0.00  0.00     0.066 A 
HETATM   13  C   UNK N   1      44.174  38.656  52.640  0.00  0.00     0.075 A 
HETATM   14  S   UNK N   1      43.631  37.803  51.187  0.00  0.00     0.180 S 
HETATM   15  O   UNK N   1      43.470  36.304  51.478  0.00  0.00    -0.222 OA
HETATM   16  O   UNK N   1      44.707  37.827  50.091  0.00  0.00    -0.222 OA
HETATM   17  C   UNK N   1      42.094  38.504  50.592  0.00  0.00     0.189 C 
ENDROOT
BRANCH   1  18
HETATM   18  C   UNK N   1      40.612  39.503  55.364  0.00  0.00     0.137 C 
HETATM   19  C   UNK N   1      39.517  40.509  55.757  0.00  0.00     0.031 C 
HETATM   20  C   UNK N   1      38.133  39.880  55.627  0.00  0.00     0.032 C 
HETATM   21  C   UNK N   1      38.072  38.624  56.497  0.00  0.00     0.272 C 
HETATM   22  N   UNK N   1      39.088  37.631  56.075  0.00  0.00     0.092 N 
HETATM   23  C   UNK N   1      40.453  38.202  56.185  0.00  0.00     0.299 C 
BRANCH  22  24
HETATM   24  C   UNK N   1      38.938  36.419  56.916  0.00  0.00     0.291 C 
BRANCH  24  25
HETATM   25  C   UNK N   1      37.464  35.996  57.069  0.00  0.00     0.147 C 
BRANCH  25  26
HETATM   26  N   UNK N   1      37.140  34.735  56.370  0.00  0.00    -0.411 N 
HETATM   27  C   UNK N   1      37.895  34.514  55.109  0.00  0.00     0.119 C 
HETATM   28  C   UNK N   1      37.516  33.149  54.533  0.00  0.00     0.051 C 
HETATM   29  C   UNK N   1      37.926  31.999  55.486  0.00  0.00     0.124 C 
HETATM   30  C   UNK N   1      38.024  32.478  56.954  0.00  0.00     0.051 C 
HETATM   31  C   UNK N   1      36.970  33.547  57.254  0.00  0.00     0.119 C 
BRANCH  29  32
HETATM   32  O   UNK N   1      39.186  31.481  55.088  0.00  0.00    -0.391 OA
HETATM   33  C   UNK N   1      39.022  30.296  54.339  0.00  0.00     0.202 C 
ENDBRANCH  29  32
ENDBRANCH  25  26
ENDBRANCH  24  25
ENDBRANCH  22  24
ENDBRANCH   1  18
BRANCH   4  34
HETATM   34  C   UNK N   1      38.972  38.431  50.777  0.00  0.00     0.272 C 
HETATM   35  O   UNK N   1      38.866  39.259  49.881  0.00  0.00    -0.266 OA
HETATM   36  N   UNK N   1      38.303  37.233  50.653  0.00  0.00    -0.343 N 
HETATM   37  C   UNK N   1      38.524  36.150  51.616  0.00  0.00     0.152 C 
HETATM   38  C   UNK N   1      37.566  36.995  49.403  0.00  0.00     0.152 C 
HETATM   39  C   UNK N   1      37.749  34.870  51.280  0.00  0.00     0.187 C 
HETATM   40  O   UNK N   1      37.747  34.640  49.887  0.00  0.00    -0.388 OA
HETATM   41  C   UNK N   1      36.905  35.620  49.321  0.00  0.00     0.187 C 
ENDBRANCH   4  34
TORSDOF 6
ENDMDL
MODEL 3
REMARK VINA RESULT:      -8.0      1.696      2.276
REMARK  6 active torsions:
REMARK  status: ('A' for Active; 'I' for Inactive)
REMARK    1  A    between atoms: O_2  and  C_3 
REMARK    2  A    between atoms: N_6  and  C_7 
REMARK    3  A    between atoms: C_7  and  C_8 
REMARK    4  A    between atoms: C_8  and  N_9 
REMARK    5  A    between atoms: C_13  and  N_14 
REMARK    6  A    between atoms: C_17  and  C_18 
REMARK       I    between atoms: C_18  and  N_20 
ROOT
HETATM    1  N   UNK N   1      41.814  38.906  51.758  0.00  0.00    -0.284 N 
HETATM    2  N   UNK N   1      40.727  39.312  52.412  0.00  0.00    -0.292 N 
ATOM      3  HN  UNK N   1      39.788  39.376  52.019  1.00  0.00     0.187 HD
HETATM    4  C   UNK N   1      41.071  39.625  53.681  0.00  0.00     0.126 A 
HETATM    5  C   UNK N   1      42.431  39.426  53.837  0.00  0.00     0.019 A 
HETATM    6  C   UNK N   1      42.892  38.964  52.601  0.00  0.00     0.072 A 
HETATM    7  C   UNK N   1      44.353  38.653  52.299  0.00  0.00     0.015 A 
HETATM    8  C   UNK N   1      44.767  37.787  51.261  0.00  0.00     0.018 A 
HETATM    9  C   UNK N   1      46.126  37.561  51.017  0.00  0.00     0.043 A 
HETATM   10  C   UNK N   1      47.098  38.182  51.799  0.00  0.00     0.117 A 
HETATM   11  F   UNK N   1      48.413  37.959  51.553  0.00  0.00    -0.206 F 
HETATM   12  C   UNK N   1      46.717  39.011  52.850  0.00  0.00     0.066 A 
HETATM   13  C   UNK N   1      45.361  39.235  53.105  0.00  0.00     0.075 A 
HETATM   14  S   UNK N   1      44.870  40.235  54.481  0.00  0.00     0.180 S 
HETATM   15  O   UNK N   1      44.878  41.720  54.090  0.00  0.00    -0.222 OA
HETATM   16  O   UNK N   1      45.904  40.172  55.614  0.00  0.00    -0.222 OA
HETATM   17  C   UNK N   1      43.250  39.740  55.063  0.00  0.00     0.189 C 
ENDROOT
BRANCH   1  18
HETATM   18  C   UNK N   1      41.810  38.586  50.313  0.00  0.00     0.137 C 
HETATM   19  C   UNK N   1      41.882  37.068  50.076  0.00  0.00     0.031 C 
HETATM   20  C   UNK N   1      40.559  36.400  50.437  0.00  0.00     0.032 C 
HETATM   21  C   UNK N   1      39.438  37.038  49.615  0.00  0.00     0.272 C 
HETATM   22  N   UNK N   1      39.331  38.490  49.892  0.00  0.00     0.092 N 
HETATM   23  C   UNK N   1      40.600  39.180  49.556  0.00  0.00     0.299 C 
BRANCH  22  24
HETATM   24  C   UNK N   1      38.194  39.033  49.112  0.00  0.00     0.291 C 
BRANCH  24  25
HETATM   25  C   UNK N   1      36.848  38.417  49.538  0.00  0.00     0.147 C 
BRANCH  25  26
HETATM   26  N   UNK N   1      36.499  38.688  50.948  0.00  0.00    -0.411 N 
HETATM   27  C   UNK N   1      35.325  39.580  51.135  0.00  0.00     0.119 C 
HETATM   28  C   UNK N   1      35.035  39.717  52.631  0.00  0.00     0.051 C 
HETATM   29  C   UNK N   1      34.644  38.355  53.258  0.00  0.00     0.124 C 
HETATM   30  C   UNK N   1      35.216  37.166  52.450  0.00  0.00     0.051 C 
HETATM   31  C   UNK N   1      36.585  37.512  51.860  0.00  0.00     0.119 C 
BRANCH  29  32
HETATM   32  O   UNK N   1      33.230  38.243  53.301  0.00  0.00    -0.391 OA
HETATM   33  C   UNK N   1      32.650  39.444  53.762  0.00  0.00     0.202 C 
ENDBRANCH  29  32
ENDBRANCH  25  26
ENDBRANCH  24  25
ENDBRANCH  22  24
ENDBRANCH   1  18
BRANCH   4  34
HETATM   34  C   UNK N   1      40.161  40.127  54.761  0.00  0.00     0.272 C 
HETATM   35  O   UNK N   1      39.697  41.252  54.625  0.00  0.00    -0.266 OA
HETATM   36  N   UNK N   1      39.767  39.376  55.847  0.00  0.00    -0.343 N 
HETATM   37  C   UNK N   1      40.167  37.971  55.968  0.00  0.00     0.152 C 
HETATM   38  C   UNK N   1      38.746  39.952  56.734  0.00  0.00     0.152 C 
HETATM   39  C   UNK N   1      39.579  37.277  57.204  0.00  0.00     0.187 C 
HETATM   40  O   UNK N   1      38.250  37.697  57.426  0.00  0.00    -0.388 OA
HETATM   41  C   UNK N   1      38.322  39.032  57.878  0.00  0.00     0.187 C 
ENDBRANCH   4  34
TORSDOF 6
ENDMDL
MODEL 4
REMARK VINA RESULT:      -8.0      2.746      5.262
REMARK  6 active torsions:
REMARK  status: ('A' for Active; 'I' for Inactive)
REMARK    1  A    between atoms: O_2  and  C_3 
REMARK    2  A    between atoms: N_6  and  C_7 
REMARK    3  A    between atoms: C_7  and  C_8 
REMARK    4  A    between atoms: C_8  and  N_9 
REMARK    5  A    between atoms: C_13  and  N_14 
REMARK    6  A    between atoms: C_17  and  C_18 
REMARK       I    between atoms: C_18  and  N_20 
ROOT
HETATM    1  N   UNK N   1      40.876  38.953  54.119  0.00  0.00    -0.284 N 
HETATM    2  N   UNK N   1      39.766  38.745  53.414  0.00  0.00    -0.292 N 
ATOM      3  HN  UNK N   1      38.828  38.640  53.801  1.00  0.00     0.187 HD
HETATM    4  C   UNK N   1      40.085  38.693  52.101  0.00  0.00     0.126 A 
HETATM    5  C   UNK N   1      41.451  38.860  51.967  0.00  0.00     0.019 A 
HETATM    6  C   UNK N   1      41.943  39.028  53.264  0.00  0.00     0.072 A 
HETATM    7  C   UNK N   1      43.419  39.202  53.599  0.00  0.00     0.015 A 
HETATM    8  C   UNK N   1      43.882  39.809  54.790  0.00  0.00     0.018 A 
HETATM    9  C   UNK N   1      45.252  39.917  55.053  0.00  0.00     0.043 A 
HETATM   10  C   UNK N   1      46.187  39.434  54.140  0.00  0.00     0.117 A 
HETATM   11  F   UNK N   1      47.513  39.540  54.404  0.00  0.00    -0.206 F 
HETATM   12  C   UNK N   1      45.759  38.865  52.944  0.00  0.00     0.066 A 
HETATM   13  C   UNK N   1      44.393  38.760  52.671  0.00  0.00     0.075 A 
HETATM   14  S   UNK N   1      43.844  38.099  51.124  0.00  0.00     0.180 S 
HETATM   15  O   UNK N   1      43.785  36.566  51.190  0.00  0.00    -0.222 OA
HETATM   16  O   UNK N   1      44.871  38.356  50.011  0.00  0.00    -0.222 OA
HETATM   17  C   UNK N   1      42.245  38.778  50.688  0.00  0.00     0.189 C 
ENDROOT
BRANCH   1  18
HETATM   18  C   UNK N   1      40.898  38.959  55.599  0.00  0.00     0.137 C 
HETATM   19  C   UNK N   1      40.844  40.393  56.154  0.00  0.00     0.031 C 
HETATM   20  C   UNK N   1      39.453  40.992  55.969  0.00  0.00     0.032 C 
HETATM   21  C   UNK N   1      38.426  40.091  56.655  0.00  0.00     0.272 C 
HETATM   22  N   UNK N   1      38.438  38.728  56.076  0.00  0.00     0.092 N 
HETATM   23  C   UNK N   1      39.776  38.106  56.234  0.00  0.00     0.299 C 
BRANCH  22  24
HETATM   24  C   UNK N   1      37.384  37.925  56.743  0.00  0.00     0.291 C 
BRANCH  24  25
HETATM   25  C   UNK N   1      36.058  38.700  56.872  0.00  0.00     0.147 C 
BRANCH  25  26
HETATM   26  N   UNK N   1      35.281  38.745  55.617  0.00  0.00    -0.411 N 
HETATM   27  C   UNK N   1      35.197  40.088  54.987  0.00  0.00     0.119 C 
HETATM   28  C   UNK N   1      34.429  39.975  53.669  0.00  0.00     0.051 C 
HETATM   29  C   UNK N   1      35.176  39.072  52.655  0.00  0.00     0.124 C 
HETATM   30  C   UNK N   1      36.108  38.061  53.366  0.00  0.00     0.051 C 
HETATM   31  C   UNK N   1      35.503  37.596  54.693  0.00  0.00     0.119 C 
BRANCH  29  32
HETATM   32  O   UNK N   1      35.954  39.879  51.786  0.00  0.00    -0.391 OA
HETATM   33  C   UNK N   1      35.396  39.893  50.489  0.00  0.00     0.202 C 
ENDBRANCH  29  32
ENDBRANCH  25  26
ENDBRANCH  24  25
ENDBRANCH  22  24
ENDBRANCH   1  18
BRANCH   4  34
HETATM   34  C   UNK N   1      39.143  38.473  50.956  0.00  0.00     0.272 C 
HETATM   35  O   UNK N   1      39.042  39.373  50.132  0.00  0.00    -0.266 OA
HETATM   36  N   UNK N   1      38.447  37.303  50.746  0.00  0.00    -0.343 N 
HETATM   37  C   UNK N   1      38.658  36.141  51.614  0.00  0.00     0.152 C 
HETATM   38  C   UNK N   1      37.687  37.183  49.493  0.00  0.00     0.152 C 
HETATM   39  C   UNK N   1      37.851  34.908  51.187  0.00  0.00     0.187 C 
HETATM   40  O   UNK N   1      37.824  34.793  49.781  0.00  0.00    -0.388 OA
HETATM   41  C   UNK N   1      36.995  35.833  49.310  0.00  0.00     0.187 C 
ENDBRANCH   4  34
TORSDOF 6
ENDMDL
MODEL 5
REMARK VINA RESULT:      -7.8      3.559      5.823
REMARK  6 active torsions:
REMARK  status: ('A' for Active; 'I' for Inactive)
REMARK    1  A    between atoms: O_2  and  C_3 
REMARK    2  A    between atoms: N_6  and  C_7 
REMARK    3  A    between atoms: C_7  and  C_8 
REMARK    4  A    between atoms: C_8  and  N_9 
REMARK    5  A    between atoms: C_13  and  N_14 
REMARK    6  A    between atoms: C_17  and  C_18 
REMARK       I    between atoms: C_18  and  N_20 
ROOT
HETATM    1  N   UNK N   1      40.886  39.030  54.162  0.00  0.00    -0.284 N 
HETATM    2  N   UNK N   1      39.774  38.804  53.466  0.00  0.00    -0.292 N 
ATOM      3  HN  UNK N   1      38.837  38.710  53.857  1.00  0.00     0.187 HD
HETATM    4  C   UNK N   1      40.090  38.717  52.154  0.00  0.00     0.126 A 
HETATM    5  C   UNK N   1      41.456  38.878  52.012  0.00  0.00     0.019 A 
HETATM    6  C   UNK N   1      41.951  39.081  53.303  0.00  0.00     0.072 A 
HETATM    7  C   UNK N   1      43.429  39.263  53.629  0.00  0.00     0.015 A 
HETATM    8  C   UNK N   1      43.895  39.901  54.802  0.00  0.00     0.018 A 
HETATM    9  C   UNK N   1      45.266  40.014  55.058  0.00  0.00     0.043 A 
HETATM   10  C   UNK N   1      46.198  39.506  54.156  0.00  0.00     0.117 A 
HETATM   11  F   UNK N   1      47.525  39.618  54.414  0.00  0.00    -0.206 F 
HETATM   12  C   UNK N   1      45.766  38.905  52.977  0.00  0.00     0.066 A 
HETATM   13  C   UNK N   1      44.399  38.795  52.710  0.00  0.00     0.075 A 
HETATM   14  S   UNK N   1      43.845  38.093  51.183  0.00  0.00     0.180 S 
HETATM   15  O   UNK N   1      43.786  36.562  51.291  0.00  0.00    -0.222 OA
HETATM   16  O   UNK N   1      44.871  38.318  50.061  0.00  0.00    -0.222 OA
HETATM   17  C   UNK N   1      42.246  38.761  50.733  0.00  0.00     0.189 C 
ENDROOT
BRANCH   1  18
HETATM   18  C   UNK N   1      40.912  39.076  55.641  0.00  0.00     0.137 C 
HETATM   19  C   UNK N   1      40.459  40.448  56.167  0.00  0.00     0.031 C 
HETATM   20  C   UNK N   1      38.955  40.627  55.985  0.00  0.00     0.032 C 
HETATM   21  C   UNK N   1      38.226  39.490  56.700  0.00  0.00     0.272 C 
HETATM   22  N   UNK N   1      38.619  38.171  56.149  0.00  0.00     0.092 N 
HETATM   23  C   UNK N   1      40.079  37.955  56.305  0.00  0.00     0.299 C 
BRANCH  22  24
HETATM   24  C   UNK N   1      37.838  37.121  56.843  0.00  0.00     0.291 C 
BRANCH  24  25
HETATM   25  C   UNK N   1      38.512  35.738  56.752  0.00  0.00     0.147 C 
BRANCH  25  26
HETATM   26  N   UNK N   1      38.040  34.930  55.609  0.00  0.00    -0.411 N 
HETATM   27  C   UNK N   1      38.257  33.467  55.752  0.00  0.00     0.119 C 
HETATM   28  C   UNK N   1      37.662  32.752  54.538  0.00  0.00     0.051 C 
HETATM   29  C   UNK N   1      36.127  32.952  54.460  0.00  0.00     0.124 C 
HETATM   30  C   UNK N   1      35.680  34.244  55.185  0.00  0.00     0.051 C 
HETATM   31  C   UNK N   1      36.729  35.349  55.036  0.00  0.00     0.119 C 
BRANCH  29  32
HETATM   32  O   UNK N   1      35.474  31.843  55.057  0.00  0.00    -0.391 OA
HETATM   33  C   UNK N   1      35.972  30.632  54.528  0.00  0.00     0.202 C 
ENDBRANCH  29  32
ENDBRANCH  25  26
ENDBRANCH  24  25
ENDBRANCH  22  24
ENDBRANCH   1  18
BRANCH   4  34
HETATM   34  C   UNK N   1      39.145  38.467  51.018  0.00  0.00     0.272 C 
HETATM   35  O   UNK N   1      39.067  39.329  50.152  0.00  0.00    -0.266 OA
HETATM   36  N   UNK N   1      38.420  37.306  50.860  0.00  0.00    -0.343 N 
HETATM   37  C   UNK N   1      38.601  36.180  51.783  0.00  0.00     0.152 C 
HETATM   38  C   UNK N   1      37.659  37.146  49.612  0.00  0.00     0.152 C 
HETATM   39  C   UNK N   1      37.764  34.949  51.411  0.00  0.00     0.187 C 
HETATM   40  O   UNK N   1      37.737  34.770  50.011  0.00  0.00    -0.388 OA
HETATM   41  C   UNK N   1      36.934  35.807  49.490  0.00  0.00     0.187 C 
ENDBRANCH   4  34
TORSDOF 6
ENDMDL
MODEL 6
REMARK VINA RESULT:      -7.7      4.213      8.015
REMARK  6 active torsions:
REMARK  status: ('A' for Active; 'I' for Inactive)
REMARK    1  A    between atoms: O_2  and  C_3 
REMARK    2  A    between atoms: N_6  and  C_7 
REMARK    3  A    between atoms: C_7  and  C_8 
REMARK    4  A    between atoms: C_8  and  N_9 
REMARK    5  A    between atoms: C_13  and  N_14 
REMARK    6  A    between atoms: C_17  and  C_18 
REMARK       I    between atoms: C_18  and  N_20 
ROOT
HETATM    1  N   UNK N   1      38.208  37.054  50.411  0.00  0.00    -0.284 N 
HETATM    2  N   UNK N   1      37.445  35.970  50.537  0.00  0.00    -0.292 N 
ATOM      3  HN  UNK N   1      36.538  35.934  51.002  1.00  0.00     0.187 HD
HETATM    4  C   UNK N   1      38.069  34.925  49.949  0.00  0.00     0.126 A 
HETATM    5  C   UNK N   1      39.282  35.357  49.443  0.00  0.00     0.019 A 
HETATM    6  C   UNK N   1      39.356  36.720  49.743  0.00  0.00     0.072 A 
HETATM    7  C   UNK N   1      40.552  37.602  49.407  0.00  0.00     0.015 A 
HETATM    8  C   UNK N   1      40.473  39.008  49.283  0.00  0.00     0.018 A 
HETATM    9  C   UNK N   1      41.613  39.767  48.998  0.00  0.00     0.043 A 
HETATM   10  C   UNK N   1      42.849  39.148  48.823  0.00  0.00     0.117 A 
HETATM   11  F   UNK N   1      43.950  39.891  48.549  0.00  0.00    -0.206 F 
HETATM   12  C   UNK N   1      42.948  37.762  48.903  0.00  0.00     0.066 A 
HETATM   13  C   UNK N   1      41.812  36.996  49.180  0.00  0.00     0.075 A 
HETATM   14  S   UNK N   1      41.918  35.230  49.218  0.00  0.00     0.180 S 
HETATM   15  O   UNK N   1      42.381  34.754  50.603  0.00  0.00    -0.222 OA
HETATM   16  O   UNK N   1      43.029  34.718  48.289  0.00  0.00    -0.222 OA
HETATM   17  C   UNK N   1      40.339  34.501  48.791  0.00  0.00     0.189 C 
ENDROOT
BRANCH   1  18
HETATM   18  C   UNK N   1      37.869  38.353  51.035  0.00  0.00     0.137 C 
HETATM   19  C   UNK N   1      36.388  38.407  51.445  0.00  0.00     0.031 C 
HETATM   20  C   UNK N   1      36.131  37.523  52.662  0.00  0.00     0.032 C 
HETATM   21  C   UNK N   1      37.041  37.972  53.805  0.00  0.00     0.272 C 
HETATM   22  N   UNK N   1      38.469  37.860  53.428  0.00  0.00     0.092 N 
HETATM   23  C   UNK N   1      38.764  38.705  52.245  0.00  0.00     0.299 C 
BRANCH  22  24
HETATM   24  C   UNK N   1      39.295  38.253  54.595  0.00  0.00     0.291 C 
BRANCH  24  25
HETATM   25  C   UNK N   1      39.568  39.769  54.630  0.00  0.00     0.147 C 
BRANCH  25  26
HETATM   26  N   UNK N   1      41.007  40.105  54.615  0.00  0.00    -0.411 N 
HETATM   27  C   UNK N   1      41.877  39.138  55.332  0.00  0.00     0.119 C 
HETATM   28  C   UNK N   1      43.337  39.568  55.177  0.00  0.00     0.051 C 
HETATM   29  C   UNK N   1      43.783  39.529  53.694  0.00  0.00     0.124 C 
HETATM   30  C   UNK N   1      42.583  39.681  52.729  0.00  0.00     0.051 C 
HETATM   31  C   UNK N   1      41.524  40.619  53.315  0.00  0.00     0.119 C 
BRANCH  29  32
HETATM   32  O   UNK N   1      44.433  38.296  53.427  0.00  0.00    -0.391 OA
HETATM   33  C   UNK N   1      44.708  38.168  52.048  0.00  0.00     0.202 C 
ENDBRANCH  29  32
ENDBRANCH  25  26
ENDBRANCH  24  25
ENDBRANCH  22  24
ENDBRANCH   1  18
BRANCH   4  34
HETATM   34  C   UNK N   1      37.569  33.515  49.860  0.00  0.00     0.272 C 
HETATM   35  O   UNK N   1      37.675  32.818  50.860  0.00  0.00    -0.266 OA
HETATM   36  N   UNK N   1      36.943  32.989  48.751  0.00  0.00    -0.343 N 
HETATM   37  C   UNK N   1      36.649  33.832  47.588  0.00  0.00     0.152 C 
HETATM   38  C   UNK N   1      36.367  31.642  48.873  0.00  0.00     0.152 C 
HETATM   39  C   UNK N   1      35.888  33.094  46.479  0.00  0.00     0.187 C 
HETATM   40  O   UNK N   1      34.924  32.223  47.031  0.00  0.00    -0.388 OA
HETATM   41  C   UNK N   1      35.638  31.158  47.620  0.00  0.00     0.187 C 
ENDBRANCH   4  34
TORSDOF 6
ENDMDL
MODEL 7
REMARK VINA RESULT:      -7.6      6.010      8.667
REMARK  6 active torsions:
REMARK  status: ('A' for Active; 'I' for Inactive)
REMARK    1  A    between atoms: O_2  and  C_3 
REMARK    2  A    between atoms: N_6  and  C_7 
REMARK    3  A    between atoms: C_7  and  C_8 
REMARK    4  A    between atoms: C_8  and  N_9 
REMARK    5  A    between atoms: C_13  and  N_14 
REMARK    6  A    between atoms: C_17  and  C_18 
REMARK       I    between atoms: C_18  and  N_20 
ROOT
HETATM    1  N   UNK N   1      41.058  35.308  48.844  0.00  0.00    -0.284 N 
HETATM    2  N   UNK N   1      40.038  34.569  48.413  0.00  0.00    -0.292 N 
ATOM      3  HN  UNK N   1      40.078  33.886  47.656  1.00  0.00     0.187 HD
HETATM    4  C   UNK N   1      38.939  34.871  49.141  0.00  0.00     0.126 A 
HETATM    5  C   UNK N   1      39.269  35.851  50.060  0.00  0.00     0.019 A 
HETATM    6  C   UNK N   1      40.626  36.118  49.861  0.00  0.00     0.072 A 
HETATM    7  C   UNK N   1      41.408  37.173  50.633  0.00  0.00     0.015 A 
HETATM    8  C   UNK N   1      42.815  37.150  50.777  0.00  0.00     0.018 A 
HETATM    9  C   UNK N   1      43.479  38.163  51.478  0.00  0.00     0.043 A 
HETATM   10  C   UNK N   1      42.764  39.211  52.054  0.00  0.00     0.117 A 
HETATM   11  F   UNK N   1      43.416  40.190  52.728  0.00  0.00    -0.206 F 
HETATM   12  C   UNK N   1      41.375  39.238  51.957  0.00  0.00     0.066 A 
HETATM   13  C   UNK N   1      40.704  38.226  51.266  0.00  0.00     0.075 A 
HETATM   14  S   UNK N   1      38.936  38.219  51.196  0.00  0.00     0.180 S 
HETATM   15  O   UNK N   1      38.444  39.112  50.047  0.00  0.00    -0.222 OA
HETATM   16  O   UNK N   1      38.326  38.890  52.437  0.00  0.00    -0.222 OA
HETATM   17  C   UNK N   1      38.326  36.546  51.008  0.00  0.00     0.189 C 
ENDROOT
BRANCH   1  18
HETATM   18  C   UNK N   1      42.387  35.301  48.193  0.00  0.00     0.137 C 
HETATM   19  C   UNK N   1      43.385  34.425  48.968  0.00  0.00     0.031 C 
HETATM   20  C   UNK N   1      43.062  32.946  48.786  0.00  0.00     0.032 C 
HETATM   21  C   UNK N   1      43.072  32.613  47.294  0.00  0.00     0.272 C 
HETATM   22  N   UNK N   1      42.066  33.414  46.559  0.00  0.00     0.092 N 
HETATM   23  C   UNK N   1      42.343  34.864  46.710  0.00  0.00     0.299 C 
BRANCH  22  24
HETATM   24  C   UNK N   1      42.087  33.003  45.135  0.00  0.00     0.291 C 
BRANCH  24  25
HETATM   25  C   UNK N   1      42.104  34.213  44.181  0.00  0.00     0.147 C 
BRANCH  25  26
HETATM   26  N   UNK N   1      41.018  34.186  43.180  0.00  0.00    -0.411 N 
HETATM   27  C   UNK N   1      40.587  35.523  42.696  0.00  0.00     0.119 C 
HETATM   28  C   UNK N   1      39.515  35.343  41.619  0.00  0.00     0.051 C 
HETATM   29  C   UNK N   1      40.075  34.599  40.381  0.00  0.00     0.124 C 
HETATM   30  C   UNK N   1      41.292  33.714  40.746  0.00  0.00     0.051 C 
HETATM   31  C   UNK N   1      41.136  33.117  42.147  0.00  0.00     0.119 C 
BRANCH  29  32
HETATM   32  O   UNK N   1      40.474  35.544  39.401  0.00  0.00    -0.391 OA
HETATM   33  C   UNK N   1      39.357  35.998  38.666  0.00  0.00     0.202 C 
ENDBRANCH  29  32
ENDBRANCH  25  26
ENDBRANCH  24  25
ENDBRANCH  22  24
ENDBRANCH   1  18
BRANCH   4  34
HETATM   34  C   UNK N   1      37.571  34.278  48.991  0.00  0.00     0.272 C 
HETATM   35  O   UNK N   1      36.987  34.476  47.933  0.00  0.00    -0.266 OA
HETATM   36  N   UNK N   1      36.972  33.475  49.937  0.00  0.00    -0.343 N 
HETATM   37  C   UNK N   1      37.697  33.078  51.148  0.00  0.00     0.152 C 
HETATM   38  C   UNK N   1      35.696  32.840  49.576  0.00  0.00     0.152 C 
HETATM   39  C   UNK N   1      36.898  32.129  52.050  0.00  0.00     0.187 C 
HETATM   40  O   UNK N   1      36.173  31.198  51.276  0.00  0.00    -0.388 OA
HETATM   41  C   UNK N   1      35.130  31.919  50.656  0.00  0.00     0.187 C 
ENDBRANCH   4  34
TORSDOF 6
ENDMDL
MODEL 8
REMARK VINA RESULT:      -7.4      6.635      9.550
REMARK  6 active torsions:
REMARK  status: ('A' for Active; 'I' for Inactive)
REMARK    1  A    between atoms: O_2  and  C_3 
REMARK    2  A    between atoms: N_6  and  C_7 
REMARK    3  A    between atoms: C_7  and  C_8 
REMARK    4  A    between atoms: C_8  and  N_9 
REMARK    5  A    between atoms: C_13  and  N_14 
REMARK    6  A    between atoms: C_17  and  C_18 
REMARK       I    between atoms: C_18  and  N_20 
ROOT
HETATM    1  N   UNK N   1      41.290  35.088  48.495  0.00  0.00    -0.284 N 
HETATM    2  N   UNK N   1      40.276  34.363  48.026  0.00  0.00    -0.292 N 
ATOM      3  HN  UNK N   1      40.333  33.687  47.265  1.00  0.00     0.187 HD
HETATM    4  C   UNK N   1      39.159  34.671  48.724  0.00  0.00     0.126 A 
HETATM    5  C   UNK N   1      39.471  35.639  49.661  0.00  0.00     0.019 A 
HETATM    6  C   UNK N   1      40.837  35.893  49.506  0.00  0.00     0.072 A 
HETATM    7  C   UNK N   1      41.606  36.933  50.311  0.00  0.00     0.015 A 
HETATM    8  C   UNK N   1      43.007  36.894  50.498  0.00  0.00     0.018 A 
HETATM    9  C   UNK N   1      43.660  37.893  51.228  0.00  0.00     0.043 A 
HETATM   10  C   UNK N   1      42.938  38.944  51.791  0.00  0.00     0.117 A 
HETATM   11  F   UNK N   1      43.580  39.910  52.493  0.00  0.00    -0.206 F 
HETATM   12  C   UNK N   1      41.554  38.987  51.652  0.00  0.00     0.066 A 
HETATM   13  C   UNK N   1      40.893  37.988  50.932  0.00  0.00     0.075 A 
HETATM   14  S   UNK N   1      39.128  38.001  50.808  0.00  0.00     0.180 S 
HETATM   15  O   UNK N   1      38.681  38.908  49.653  0.00  0.00    -0.222 OA
HETATM   16  O   UNK N   1      38.488  38.667  52.036  0.00  0.00    -0.222 OA
HETATM   17  C   UNK N   1      38.507  36.336  50.587  0.00  0.00     0.189 C 
ENDROOT
BRANCH   1  18
HETATM   18  C   UNK N   1      42.639  35.072  47.885  0.00  0.00     0.137 C 
HETATM   19  C   UNK N   1      43.608  34.193  48.693  0.00  0.00     0.031 C 
HETATM   20  C   UNK N   1      43.283  32.715  48.505  0.00  0.00     0.032 C 
HETATM   21  C   UNK N   1      43.337  32.377  47.015  0.00  0.00     0.272 C 
HETATM   22  N   UNK N   1      42.357  33.182  46.248  0.00  0.00     0.092 N 
HETATM   23  C   UNK N   1      42.637  34.631  46.403  0.00  0.00     0.299 C 
BRANCH  22  24
HETATM   24  C   UNK N   1      42.420  32.767  44.826  0.00  0.00     0.291 C 
BRANCH  24  25
HETATM   25  C   UNK N   1      42.158  33.942  43.865  0.00  0.00     0.147 C 
BRANCH  25  26
HETATM   26  N   UNK N   1      41.434  33.546  42.639  0.00  0.00    -0.411 N 
HETATM   27  C   UNK N   1      40.702  34.651  41.967  0.00  0.00     0.119 C 
HETATM   28  C   UNK N   1      40.062  34.119  40.683  0.00  0.00     0.051 C 
HETATM   29  C   UNK N   1      41.135  33.639  39.674  0.00  0.00     0.124 C 
HETATM   30  C   UNK N   1      42.450  33.236  40.383  0.00  0.00     0.051 C 
HETATM   31  C   UNK N   1      42.167  32.603  41.747  0.00  0.00     0.119 C 
BRANCH  29  32
HETATM   32  O   UNK N   1      41.413  34.677  38.748  0.00  0.00    -0.391 OA
HETATM   33  C   UNK N   1      40.214  35.253  38.274  0.00  0.00     0.202 C 
ENDBRANCH  29  32
ENDBRANCH  25  26
ENDBRANCH  24  25
ENDBRANCH  22  24
ENDBRANCH   1  18
BRANCH   4  34
HETATM   34  C   UNK N   1      37.790  34.093  48.527  0.00  0.00     0.272 C 
HETATM   35  O   UNK N   1      36.996  34.206  49.451  0.00  0.00    -0.266 OA
HETATM   36  N   UNK N   1      37.361  33.513  47.353  0.00  0.00    -0.343 N 
HETATM   37  C   UNK N   1      38.223  33.501  46.166  0.00  0.00     0.152 C 
HETATM   38  C   UNK N   1      35.942  33.138  47.262  0.00  0.00     0.152 C 
HETATM   39  C   UNK N   1      37.553  32.876  44.936  0.00  0.00     0.187 C 
HETATM   40  O   UNK N   1      36.192  33.248  44.867  0.00  0.00    -0.388 OA
HETATM   41  C   UNK N   1      35.536  32.558  45.908  0.00  0.00     0.187 C 
ENDBRANCH   4  34
TORSDOF 6
ENDMDL
MODEL 9
REMARK VINA RESULT:      -7.4      7.543     10.831
REMARK  6 active torsions:
REMARK  status: ('A' for Active; 'I' for Inactive)
REMARK    1  A    between atoms: O_2  and  C_3 
REMARK    2  A    between atoms: N_6  and  C_7 
REMARK    3  A    between atoms: C_7  and  C_8 
REMARK    4  A    between atoms: C_8  and  N_9 
REMARK    5  A    between atoms: C_13  and  N_14 
REMARK    6  A    between atoms: C_17  and  C_18 
REMARK       I    between atoms: C_18  and  N_20 
ROOT
HETATM    1  N   UNK N   1      38.161  33.370  45.693  0.00  0.00    -0.284 N 
HETATM    2  N   UNK N   1      39.047  33.353  46.686  0.00  0.00    -0.292 N 
ATOM      3  HN  UNK N   1      38.831  33.213  47.673  1.00  0.00     0.187 HD
HETATM    4  C   UNK N   1      40.282  33.553  46.173  0.00  0.00     0.126 A 
HETATM    5  C   UNK N   1      40.175  33.718  44.804  0.00  0.00     0.019 A 
HETATM    6  C   UNK N   1      38.814  33.595  44.511  0.00  0.00     0.072 A 
HETATM    7  C   UNK N   1      38.227  33.752  43.114  0.00  0.00     0.015 A 
HETATM    8  C   UNK N   1      36.983  33.203  42.726  0.00  0.00     0.018 A 
HETATM    9  C   UNK N   1      36.484  33.404  41.434  0.00  0.00     0.043 A 
HETATM   10  C   UNK N   1      37.209  34.143  40.503  0.00  0.00     0.117 A 
HETATM   11  F   UNK N   1      36.716  34.335  39.254  0.00  0.00    -0.206 F 
HETATM   12  C   UNK N   1      38.453  34.664  40.848  0.00  0.00     0.066 A 
HETATM   13  C   UNK N   1      38.962  34.462  42.133  0.00  0.00     0.075 A 
HETATM   14  S   UNK N   1      40.571  35.065  42.558  0.00  0.00     0.180 S 
HETATM   15  O   UNK N   1      40.491  36.535  42.993  0.00  0.00    -0.222 OA
HETATM   16  O   UNK N   1      41.488  35.120  41.326  0.00  0.00    -0.222 OA
HETATM   17  C   UNK N   1      41.293  34.057  43.850  0.00  0.00     0.189 C 
ENDROOT
BRANCH   1  18
HETATM   18  C   UNK N   1      36.700  33.284  45.919  0.00  0.00     0.137 C 
HETATM   19  C   UNK N   1      36.177  31.861  45.663  0.00  0.00     0.031 C 
HETATM   20  C   UNK N   1      36.611  30.916  46.779  0.00  0.00     0.032 C 
HETATM   21  C   UNK N   1      36.109  31.460  48.117  0.00  0.00     0.272 C 
HETATM   22  N   UNK N   1      36.665  32.806  48.389  0.00  0.00     0.092 N 
HETATM   23  C   UNK N   1      36.267  33.760  47.325  0.00  0.00     0.299 C 
BRANCH  22  24
HETATM   24  C   UNK N   1      36.189  33.249  49.721  0.00  0.00     0.291 C 
BRANCH  24  25
HETATM   25  C   UNK N   1      37.165  34.236  50.389  0.00  0.00     0.147 C 
BRANCH  25  26
HETATM   26  N   UNK N   1      36.622  35.605  50.515  0.00  0.00    -0.411 N 
HETATM   27  C   UNK N   1      36.381  36.050  51.911  0.00  0.00     0.119 C 
HETATM   28  C   UNK N   1      35.890  37.499  51.896  0.00  0.00     0.051 C 
HETATM   29  C   UNK N   1      36.965  38.454  51.320  0.00  0.00     0.124 C 
HETATM   30  C   UNK N   1      37.944  37.715  50.377  0.00  0.00     0.051 C 
HETATM   31  C   UNK N   1      37.225  36.612  49.596  0.00  0.00     0.119 C 
BRANCH  29  32
HETATM   32  O   UNK N   1      37.704  39.032  52.385  0.00  0.00    -0.391 OA
HETATM   33  C   UNK N   1      38.995  38.465  52.459  0.00  0.00     0.202 C 
ENDBRANCH  29  32
ENDBRANCH  25  26
ENDBRANCH  24  25
ENDBRANCH  22  24
ENDBRANCH   1  18
BRANCH   4  34
HETATM   34  C   UNK N   1      41.572  33.612  46.934  0.00  0.00     0.272 C 
HETATM   35  O   UNK N   1      42.490  32.905  46.538  0.00  0.00    -0.266 OA
HETATM   36  N   UNK N   1      41.801  34.458  47.997  0.00  0.00    -0.343 N 
HETATM   37  C   UNK N   1      40.788  35.437  48.404  0.00  0.00     0.152 C 
HETATM   38  C   UNK N   1      43.167  34.513  48.538  0.00  0.00     0.152 C 
HETATM   39  C   UNK N   1      41.244  36.339  49.559  0.00  0.00     0.187 C 
HETATM   40  O   UNK N   1      42.604  36.689  49.411  0.00  0.00    -0.388 OA
HETATM   41  C   UNK N   1      43.349  35.519  49.673  0.00  0.00     0.187 C 
ENDBRANCH   4  34
TORSDOF 6
ENDMDL
