MODEL 1
REMARK VINA RESULT:      -9.2      0.000      0.000
REMARK  3 active torsions:
REMARK  status: ('A' for Active; 'I' for Inactive)
REMARK    1  A    between atoms: C_5  and  N_6 
REMARK    2  A    between atoms: C_10  and  N_11 
REMARK    3  A    between atoms: C_14  and  C_15 
REMARK       I    between atoms: C_15  and  N_17 
ROOT
HETATM    1  N   UNK N   1      40.976  34.962  49.022  0.00  0.00    -0.284 N 
HETATM    2  N   UNK N   1      39.738  34.493  48.938  0.00  0.00    -0.292 N 
ATOM      3  HN  UNK N   1      39.454  33.678  48.393  1.00  0.00     0.187 HD
HETATM    4  C   UNK N   1      38.916  35.254  49.681  0.00  0.00     0.126 A 
HETATM    5  C   UNK N   1      39.667  36.260  50.277  0.00  0.00     0.019 A 
HETATM    6  C   UNK N   1      40.992  36.036  49.868  0.00  0.00     0.072 A 
HETATM    7  C   UNK N   1      42.188  36.872  50.302  0.00  0.00     0.014 A 
HETATM    8  C   UNK N   1      43.521  36.400  50.240  0.00  0.00     0.015 A 
HETATM    9  C   UNK N   1      44.588  37.209  50.649  0.00  0.00     0.001 A 
HETATM   10  C   UNK N   1      44.352  38.492  51.141  0.00  0.00     0.002 A 
HETATM   11  C   UNK N   1      43.049  38.962  51.252  0.00  0.00     0.024 A 
HETATM   12  C   UNK N   1      41.979  38.158  50.850  0.00  0.00     0.072 A 
HETATM   13  S   UNK N   1      40.321  38.726  51.058  0.00  0.00     0.180 S 
HETATM   14  O   UNK N   1      39.964  39.667  49.898  0.00  0.00    -0.222 OA
HETATM   15  O   UNK N   1      40.190  39.649  52.279  0.00  0.00    -0.222 OA
HETATM   16  C   UNK N   1      39.134  37.386  51.126  0.00  0.00     0.189 C 
ENDROOT
BRANCH   1  17
HETATM   17  C   UNK N   1      42.047  34.428  48.158  0.00  0.00     0.137 C 
HETATM   18  C   UNK N   1      42.761  33.240  48.788  0.00  0.00     0.031 C 
HETATM   19  C   UNK N   1      43.970  32.854  47.902  0.00  0.00     0.032 C 
HETATM   20  C   UNK N   1      43.750  33.185  46.405  0.00  0.00     0.273 C 
HETATM   21  N   UNK N   1      42.334  32.971  46.061  0.00  0.00     0.095 N 
HETATM   22  C   UNK N   1      41.464  33.952  46.786  0.00  0.00     0.300 C 
BRANCH  21  23
HETATM   23  C   UNK N   1      42.000  32.927  44.609  0.00  0.00     0.226 C 
HETATM   24  C   UNK N   1      42.655  31.769  43.824  0.00  0.00     0.066 C 
HETATM   25  C   UNK N   1      42.305  31.933  42.319  0.00  0.00     0.274 C 
HETATM   26  N   UNK N   1      40.864  32.195  42.044  0.00  0.00     0.084 N 
HETATM   27  C   UNK N   1      40.625  33.519  41.445  0.00  0.00     0.309 C 
HETATM   28  C   UNK N   1      40.014  31.968  43.221  0.00  0.00     0.274 C 
HETATM   29  C   UNK N   1      40.450  32.819  44.433  0.00  0.00     0.066 C 
ENDBRANCH  21  23
ENDBRANCH   1  17
BRANCH   4  30
HETATM   30  C   UNK N   1      37.420  35.102  49.747  0.00  0.00     0.272 C 
HETATM   31  O   UNK N   1      36.776  35.417  48.756  0.00  0.00    -0.266 OA
HETATM   32  N   UNK N   1      36.743  34.592  50.839  0.00  0.00    -0.343 N 
HETATM   33  C   UNK N   1      35.310  34.306  50.679  0.00  0.00     0.152 C 
HETATM   34  C   UNK N   1      37.457  34.154  52.044  0.00  0.00     0.152 C 
HETATM   35  C   UNK N   1      34.621  33.822  51.955  0.00  0.00     0.187 C 
HETATM   36  O   UNK N   1      35.461  32.938  52.666  0.00  0.00    -0.388 OA
HETATM   37  C   UNK N   1      36.523  33.714  53.176  0.00  0.00     0.187 C 
ENDBRANCH   4  30
TORSDOF 3
ENDMDL
MODEL 2
REMARK VINA RESULT:      -8.3      4.633      9.099
REMARK  3 active torsions:
REMARK  status: ('A' for Active; 'I' for Inactive)
REMARK    1  A    between atoms: C_5  and  N_6 
REMARK    2  A    between atoms: C_10  and  N_11 
REMARK    3  A    between atoms: C_14  and  C_15 
REMARK       I    between atoms: C_15  and  N_17 
ROOT
HETATM    1  N   UNK N   1      41.601  38.699  52.453  0.00  0.00    -0.284 N 
HETATM    2  N   UNK N   1      40.279  38.799  52.508  0.00  0.00    -0.292 N 
ATOM      3  HN  UNK N   1      39.753  39.229  53.269  1.00  0.00     0.187 HD
HETATM    4  C   UNK N   1      39.740  38.247  51.407  0.00  0.00     0.126 A 
HETATM    5  C   UNK N   1      40.769  37.775  50.601  0.00  0.00     0.019 A 
HETATM    6  C   UNK N   1      41.957  38.104  51.275  0.00  0.00     0.072 A 
HETATM    7  C   UNK N   1      43.359  37.815  50.756  0.00  0.00     0.014 A 
HETATM    8  C   UNK N   1      44.507  38.507  51.210  0.00  0.00     0.015 A 
HETATM    9  C   UNK N   1      45.775  38.203  50.701  0.00  0.00     0.001 A 
HETATM   10  C   UNK N   1      45.927  37.220  49.724  0.00  0.00     0.002 A 
HETATM   11  C   UNK N   1      44.809  36.557  49.230  0.00  0.00     0.024 A 
HETATM   12  C   UNK N   1      43.540  36.859  49.729  0.00  0.00     0.072 A 
HETATM   13  S   UNK N   1      42.114  36.069  49.053  0.00  0.00     0.180 S 
HETATM   14  O   UNK N   1      41.961  34.679  49.689  0.00  0.00    -0.222 OA
HETATM   15  O   UNK N   1      42.310  35.729  47.568  0.00  0.00    -0.222 OA
HETATM   16  C   UNK N   1      40.613  37.011  49.311  0.00  0.00     0.189 C 
ENDROOT
BRANCH   1  17
HETATM   17  C   UNK N   1      42.435  39.056  53.619  0.00  0.00     0.137 C 
HETATM   18  C   UNK N   1      43.270  40.305  53.371  0.00  0.00     0.031 C 
HETATM   19  C   UNK N   1      44.233  40.507  54.566  0.00  0.00     0.032 C 
HETATM   20  C   UNK N   1      43.669  39.952  55.896  0.00  0.00     0.273 C 
HETATM   21  N   UNK N   1      42.210  40.154  55.930  0.00  0.00     0.095 N 
HETATM   22  C   UNK N   1      41.541  39.328  54.874  0.00  0.00     0.300 C 
BRANCH  21  23
HETATM   23  C   UNK N   1      41.542  39.980  57.251  0.00  0.00     0.226 C 
HETATM   24  C   UNK N   1      41.520  41.242  58.141  0.00  0.00     0.066 C 
HETATM   25  C   UNK N   1      40.902  40.865  59.516  0.00  0.00     0.274 C 
HETATM   26  N   UNK N   1      39.634  40.085  59.431  0.00  0.00     0.084 N 
HETATM   27  C   UNK N   1      39.757  38.728  59.990  0.00  0.00     0.309 C 
HETATM   28  C   UNK N   1      39.071  40.067  58.074  0.00  0.00     0.274 C 
HETATM   29  C   UNK N   1      40.067  39.512  57.033  0.00  0.00     0.066 C 
ENDBRANCH  21  23
ENDBRANCH   1  17
BRANCH   4  30
HETATM   30  C   UNK N   1      38.265  38.071  51.161  0.00  0.00     0.272 C 
HETATM   31  O   UNK N   1      37.717  38.874  50.419  0.00  0.00    -0.266 OA
HETATM   32  N   UNK N   1      37.513  37.038  51.686  0.00  0.00    -0.343 N 
HETATM   33  C   UNK N   1      36.138  36.875  51.189  0.00  0.00     0.152 C 
HETATM   34  C   UNK N   1      38.115  36.014  52.547  0.00  0.00     0.152 C 
HETATM   35  C   UNK N   1      35.350  35.762  51.879  0.00  0.00     0.187 C 
HETATM   36  O   UNK N   1      36.174  34.640  52.108  0.00  0.00    -0.388 OA
HETATM   37  C   UNK N   1      37.098  35.015  53.107  0.00  0.00     0.187 C 
ENDBRANCH   4  30
TORSDOF 3
ENDMDL
MODEL 3
REMARK VINA RESULT:      -7.9      2.980      7.486
REMARK  3 active torsions:
REMARK  status: ('A' for Active; 'I' for Inactive)
REMARK    1  A    between atoms: C_5  and  N_6 
REMARK    2  A    between atoms: C_10  and  N_11 
REMARK    3  A    between atoms: C_14  and  C_15 
REMARK       I    between atoms: C_15  and  N_17 
ROOT
HETATM    1  N   UNK N   1      39.380  35.916  50.108  0.00  0.00    -0.284 N 
HETATM    2  N   UNK N   1      39.503  35.053  49.108  0.00  0.00    -0.292 N 
ATOM      3  HN  UNK N   1      38.817  34.340  48.858  1.00  0.00     0.187 HD
HETATM    4  C   UNK N   1      40.670  35.264  48.473  0.00  0.00     0.126 A 
HETATM    5  C   UNK N   1      41.325  36.319  49.094  0.00  0.00     0.019 A 
HETATM    6  C   UNK N   1      40.466  36.746  50.121  0.00  0.00     0.072 A 
HETATM    7  C   UNK N   1      40.746  37.912  51.059  0.00  0.00     0.014 A 
HETATM    8  C   UNK N   1      39.729  38.585  51.777  0.00  0.00     0.015 A 
HETATM    9  C   UNK N   1      40.038  39.651  52.628  0.00  0.00     0.001 A 
HETATM   10  C   UNK N   1      41.356  40.080  52.774  0.00  0.00     0.002 A 
HETATM   11  C   UNK N   1      42.369  39.463  52.046  0.00  0.00     0.024 A 
HETATM   12  C   UNK N   1      42.066  38.401  51.189  0.00  0.00     0.072 A 
HETATM   13  S   UNK N   1      43.339  37.665  50.213  0.00  0.00     0.180 S 
HETATM   14  O   UNK N   1      44.117  36.661  51.077  0.00  0.00    -0.222 OA
HETATM   15  O   UNK N   1      44.425  38.686  49.840  0.00  0.00    -0.222 OA
HETATM   16  C   UNK N   1      42.702  36.834  48.760  0.00  0.00     0.189 C 
ENDROOT
BRANCH   1  17
HETATM   17  C   UNK N   1      38.281  35.788  51.085  0.00  0.00     0.137 C 
HETATM   18  C   UNK N   1      37.058  36.605  50.692  0.00  0.00     0.031 C 
HETATM   19  C   UNK N   1      36.028  36.552  51.845  0.00  0.00     0.032 C 
HETATM   20  C   UNK N   1      36.109  35.242  52.667  0.00  0.00     0.273 C 
HETATM   21  N   UNK N   1      36.447  34.124  51.769  0.00  0.00     0.095 N 
HETATM   22  C   UNK N   1      37.827  34.295  51.214  0.00  0.00     0.300 C 
BRANCH  21  23
HETATM   23  C   UNK N   1      36.254  32.750  52.313  0.00  0.00     0.226 C 
HETATM   24  C   UNK N   1      37.436  32.205  53.144  0.00  0.00     0.066 C 
HETATM   25  C   UNK N   1      37.129  30.732  53.533  0.00  0.00     0.274 C 
HETATM   26  N   UNK N   1      35.763  30.512  54.090  0.00  0.00     0.084 N 
HETATM   27  C   UNK N   1      34.930  29.644  53.240  0.00  0.00     0.309 C 
HETATM   28  C   UNK N   1      35.079  31.769  54.422  0.00  0.00     0.274 C 
HETATM   29  C   UNK N   1      34.973  32.718  53.209  0.00  0.00     0.066 C 
ENDBRANCH  21  23
ENDBRANCH   1  17
BRANCH   4  30
HETATM   30  C   UNK N   1      41.213  34.412  47.356  0.00  0.00     0.272 C 
HETATM   31  O   UNK N   1      40.777  34.610  46.231  0.00  0.00    -0.266 OA
HETATM   32  N   UNK N   1      42.198  33.457  47.523  0.00  0.00    -0.343 N 
HETATM   33  C   UNK N   1      42.776  32.856  46.311  0.00  0.00     0.152 C 
HETATM   34  C   UNK N   1      42.798  33.198  48.837  0.00  0.00     0.152 C 
HETATM   35  C   UNK N   1      43.799  31.754  46.585  0.00  0.00     0.187 C 
HETATM   36  O   UNK N   1      44.616  32.098  47.683  0.00  0.00    -0.388 OA
HETATM   37  C   UNK N   1      43.797  32.037  48.830  0.00  0.00     0.187 C 
ENDBRANCH   4  30
TORSDOF 3
ENDMDL
MODEL 4
REMARK VINA RESULT:      -7.8      3.786      5.324
REMARK  3 active torsions:
REMARK  status: ('A' for Active; 'I' for Inactive)
REMARK    1  A    between atoms: C_5  and  N_6 
REMARK    2  A    between atoms: C_10  and  N_11 
REMARK    3  A    between atoms: C_14  and  C_15 
REMARK       I    between atoms: C_15  and  N_17 
ROOT
HETATM    1  N   UNK N   1      41.380  38.659  51.857  0.00  0.00    -0.284 N 
HETATM    2  N   UNK N   1      40.111  38.785  52.226  0.00  0.00    -0.292 N 
ATOM      3  HN  UNK N   1      39.305  38.632  51.620  1.00  0.00     0.187 HD
HETATM    4  C   UNK N   1      40.053  39.144  53.520  0.00  0.00     0.126 A 
HETATM    5  C   UNK N   1      41.349  39.247  54.008  0.00  0.00     0.019 A 
HETATM    6  C   UNK N   1      42.186  38.901  52.935  0.00  0.00     0.072 A 
HETATM    7  C   UNK N   1      43.706  38.837  53.003  0.00  0.00     0.014 A 
HETATM    8  C   UNK N   1      44.488  38.097  52.085  0.00  0.00     0.015 A 
HETATM    9  C   UNK N   1      45.883  38.071  52.190  0.00  0.00     0.001 A 
HETATM   10  C   UNK N   1      46.527  38.763  53.214  0.00  0.00     0.002 A 
HETATM   11  C   UNK N   1      45.779  39.461  54.155  0.00  0.00     0.024 A 
HETATM   12  C   UNK N   1      44.385  39.487  54.059  0.00  0.00     0.072 A 
HETATM   13  S   UNK N   1      43.430  40.313  55.293  0.00  0.00     0.180 S 
HETATM   14  O   UNK N   1      43.414  41.819  54.990  0.00  0.00    -0.222 OA
HETATM   15  O   UNK N   1      44.119  40.264  56.665  0.00  0.00    -0.222 OA
HETATM   16  C   UNK N   1      41.749  39.706  55.388  0.00  0.00     0.189 C 
ENDROOT
BRANCH   1  17
HETATM   17  C   UNK N   1      41.738  38.456  50.439  0.00  0.00     0.137 C 
HETATM   18  C   UNK N   1      42.772  39.464  49.954  0.00  0.00     0.031 C 
HETATM   19  C   UNK N   1      42.961  39.291  48.428  0.00  0.00     0.032 C 
HETATM   20  C   UNK N   1      42.702  37.842  47.948  0.00  0.00     0.273 C 
HETATM   21  N   UNK N   1      43.164  36.897  48.979  0.00  0.00     0.095 N 
HETATM   22  C   UNK N   1      42.335  37.026  50.220  0.00  0.00     0.300 C 
BRANCH  21  23
HETATM   23  C   UNK N   1      43.295  35.471  48.567  0.00  0.00     0.226 C 
HETATM   24  C   UNK N   1      42.799  34.443  49.608  0.00  0.00     0.066 C 
HETATM   25  C   UNK N   1      43.112  33.015  49.080  0.00  0.00     0.274 C 
HETATM   26  N   UNK N   1      42.711  32.779  47.663  0.00  0.00     0.084 N 
HETATM   27  C   UNK N   1      43.858  32.514  46.778  0.00  0.00     0.309 C 
HETATM   28  C   UNK N   1      41.848  33.844  47.134  0.00  0.00     0.274 C 
HETATM   29  C   UNK N   1      42.506  35.237  47.238  0.00  0.00     0.066 C 
ENDBRANCH  21  23
ENDBRANCH   1  17
BRANCH   4  30
HETATM   30  C   UNK N   1      38.791  39.489  54.266  0.00  0.00     0.272 C 
HETATM   31  O   UNK N   1      38.373  40.634  54.169  0.00  0.00    -0.266 OA
HETATM   32  N   UNK N   1      38.062  38.582  55.012  0.00  0.00    -0.343 N 
HETATM   33  C   UNK N   1      36.744  39.009  55.505  0.00  0.00     0.152 C 
HETATM   34  C   UNK N   1      38.481  37.180  55.134  0.00  0.00     0.152 C 
HETATM   35  C   UNK N   1      36.041  37.976  56.387  0.00  0.00     0.187 C 
HETATM   36  O   UNK N   1      36.236  36.675  55.878  0.00  0.00    -0.388 OA
HETATM   37  C   UNK N   1      37.597  36.363  56.081  0.00  0.00     0.187 C 
ENDBRANCH   4  30
TORSDOF 3
ENDMDL
MODEL 5
REMARK VINA RESULT:      -7.7      5.131      9.476
REMARK  3 active torsions:
REMARK  status: ('A' for Active; 'I' for Inactive)
REMARK    1  A    between atoms: C_5  and  N_6 
REMARK    2  A    between atoms: C_10  and  N_11 
REMARK    3  A    between atoms: C_14  and  C_15 
REMARK       I    between atoms: C_15  and  N_17 
ROOT
HETATM    1  N   UNK N   1      41.878  39.333  53.518  0.00  0.00    -0.284 N 
HETATM    2  N   UNK N   1      40.700  39.369  52.909  0.00  0.00    -0.292 N 
ATOM      3  HN  UNK N   1      39.808  39.558  53.365  1.00  0.00     0.187 HD
HETATM    4  C   UNK N   1      40.863  39.119  51.598  0.00  0.00     0.126 A 
HETATM    5  C   UNK N   1      42.216  38.918  51.352  0.00  0.00     0.019 A 
HETATM    6  C   UNK N   1      42.855  39.092  52.592  0.00  0.00     0.072 A 
HETATM    7  C   UNK N   1      44.359  39.003  52.814  0.00  0.00     0.014 A 
HETATM    8  C   UNK N   1      45.009  39.585  53.928  0.00  0.00     0.015 A 
HETATM    9  C   UNK N   1      46.395  39.473  54.088  0.00  0.00     0.001 A 
HETATM   10  C   UNK N   1      47.163  38.799  53.141  0.00  0.00     0.002 A 
HETATM   11  C   UNK N   1      46.553  38.256  52.015  0.00  0.00     0.024 A 
HETATM   12  C   UNK N   1      45.170  38.368  51.846  0.00  0.00     0.072 A 
HETATM   13  S   UNK N   1      44.406  37.743  50.383  0.00  0.00     0.180 S 
HETATM   14  O   UNK N   1      44.199  36.228  50.533  0.00  0.00    -0.222 OA
HETATM   15  O   UNK N   1      45.351  37.825  49.175  0.00  0.00    -0.222 OA
HETATM   16  C   UNK N   1      42.835  38.528  50.034  0.00  0.00     0.189 C 
ENDROOT
BRANCH   1  17
HETATM   17  C   UNK N   1      41.970  39.389  54.991  0.00  0.00     0.137 C 
HETATM   18  C   UNK N   1      42.388  40.764  55.493  0.00  0.00     0.031 C 
HETATM   19  C   UNK N   1      42.625  40.688  57.020  0.00  0.00     0.032 C 
HETATM   20  C   UNK N   1      41.751  39.615  57.714  0.00  0.00     0.273 C 
HETATM   21  N   UNK N   1      40.440  39.549  57.047  0.00  0.00     0.095 N 
HETATM   22  C   UNK N   1      40.588  39.050  55.643  0.00  0.00     0.300 C 
BRANCH  21  23
HETATM   23  C   UNK N   1      39.362  38.813  57.767  0.00  0.00     0.226 C 
HETATM   24  C   UNK N   1      38.792  39.538  59.006  0.00  0.00     0.066 C 
HETATM   25  C   UNK N   1      37.773  38.595  59.705  0.00  0.00     0.274 C 
HETATM   26  N   UNK N   1      36.784  37.964  58.786  0.00  0.00     0.084 N 
HETATM   27  C   UNK N   1      36.914  36.499  58.721  0.00  0.00     0.309 C 
HETATM   28  C   UNK N   1      36.787  38.572  57.448  0.00  0.00     0.274 C 
HETATM   29  C   UNK N   1      38.181  38.524  56.785  0.00  0.00     0.066 C 
ENDBRANCH  21  23
ENDBRANCH   1  17
BRANCH   4  30
HETATM   30  C   UNK N   1      39.746  38.965  50.601  0.00  0.00     0.272 C 
HETATM   31  O   UNK N   1      39.636  39.826  49.739  0.00  0.00    -0.266 OA
HETATM   32  N   UNK N   1      38.871  37.896  50.580  0.00  0.00    -0.343 N 
HETATM   33  C   UNK N   1      37.970  37.776  49.424  0.00  0.00     0.152 C 
HETATM   34  C   UNK N   1      38.972  36.805  51.557  0.00  0.00     0.152 C 
HETATM   35  C   UNK N   1      36.982  36.613  49.518  0.00  0.00     0.187 C 
HETATM   36  O   UNK N   1      37.607  35.474  50.069  0.00  0.00    -0.388 OA
HETATM   37  C   UNK N   1      37.853  35.768  51.427  0.00  0.00     0.187 C 
ENDBRANCH   4  30
TORSDOF 3
ENDMDL
MODEL 6
REMARK VINA RESULT:      -7.7      4.648      7.881
REMARK  3 active torsions:
REMARK  status: ('A' for Active; 'I' for Inactive)
REMARK    1  A    between atoms: C_5  and  N_6 
REMARK    2  A    between atoms: C_10  and  N_11 
REMARK    3  A    between atoms: C_14  and  C_15 
REMARK       I    between atoms: C_15  and  N_17 
ROOT
HETATM    1  N   UNK N   1      40.400  38.299  51.690  0.00  0.00    -0.284 N 
HETATM    2  N   UNK N   1      40.496  39.401  52.422  0.00  0.00    -0.292 N 
ATOM      3  HN  UNK N   1      41.240  40.095  52.346  1.00  0.00     0.187 HD
HETATM    4  C   UNK N   1      39.462  39.463  53.279  0.00  0.00     0.126 A 
HETATM    5  C   UNK N   1      38.658  38.348  53.083  0.00  0.00     0.019 A 
HETATM    6  C   UNK N   1      39.259  37.629  52.036  0.00  0.00     0.072 A 
HETATM    7  C   UNK N   1      38.712  36.338  51.442  0.00  0.00     0.014 A 
HETATM    8  C   UNK N   1      39.067  35.870  50.154  0.00  0.00     0.015 A 
HETATM    9  C   UNK N   1      38.537  34.676  49.654  0.00  0.00     0.001 A 
HETATM   10  C   UNK N   1      37.635  33.932  50.411  0.00  0.00     0.002 A 
HETATM   11  C   UNK N   1      37.236  34.392  51.662  0.00  0.00     0.024 A 
HETATM   12  C   UNK N   1      37.757  35.587  52.166  0.00  0.00     0.072 A 
HETATM   13  S   UNK N   1      37.198  36.208  53.720  0.00  0.00     0.180 S 
HETATM   14  O   UNK N   1      37.946  35.481  54.849  0.00  0.00    -0.222 OA
HETATM   15  O   UNK N   1      35.738  35.815  53.991  0.00  0.00    -0.222 OA
HETATM   16  C   UNK N   1      37.438  37.974  53.886  0.00  0.00     0.189 C 
ENDROOT
BRANCH   1  17
HETATM   17  C   UNK N   1      41.502  37.885  50.799  0.00  0.00     0.137 C 
HETATM   18  C   UNK N   1      41.275  38.321  49.357  0.00  0.00     0.031 C 
HETATM   19  C   UNK N   1      42.380  37.704  48.468  0.00  0.00     0.032 C 
HETATM   20  C   UNK N   1      43.711  37.481  49.227  0.00  0.00     0.273 C 
HETATM   21  N   UNK N   1      43.905  38.569  50.201  0.00  0.00     0.095 N 
HETATM   22  C   UNK N   1      42.858  38.508  51.271  0.00  0.00     0.300 C 
BRANCH  21  23
HETATM   23  C   UNK N   1      45.267  38.701  50.791  0.00  0.00     0.226 C 
HETATM   24  C   UNK N   1      45.415  38.142  52.223  0.00  0.00     0.066 C 
HETATM   25  C   UNK N   1      46.848  38.462  52.733  0.00  0.00     0.274 C 
HETATM   26  N   UNK N   1      47.936  38.129  51.769  0.00  0.00     0.084 N 
HETATM   27  C   UNK N   1      48.675  39.315  51.305  0.00  0.00     0.309 C 
HETATM   28  C   UNK N   1      47.464  37.307  50.646  0.00  0.00     0.274 C 
HETATM   29  C   UNK N   1      46.306  37.976  49.875  0.00  0.00     0.066 C 
ENDBRANCH  21  23
ENDBRANCH   1  17
BRANCH   4  30
HETATM   30  C   UNK N   1      39.286  40.510  54.347  0.00  0.00     0.272 C 
HETATM   31  O   UNK N   1      38.797  41.580  54.014  0.00  0.00    -0.266 OA
HETATM   32  N   UNK N   1      39.603  40.316  55.679  0.00  0.00    -0.343 N 
HETATM   33  C   UNK N   1      39.179  41.348  56.637  0.00  0.00     0.152 C 
HETATM   34  C   UNK N   1      40.151  39.041  56.156  0.00  0.00     0.152 C 
HETATM   35  C   UNK N   1      39.639  41.096  58.073  0.00  0.00     0.187 C 
HETATM   36  O   UNK N   1      39.536  39.726  58.393  0.00  0.00    -0.388 OA
HETATM   37  C   UNK N   1      40.527  39.060  57.641  0.00  0.00     0.187 C 
ENDBRANCH   4  30
TORSDOF 3
ENDMDL
MODEL 7
REMARK VINA RESULT:      -7.7      5.017      9.327
REMARK  3 active torsions:
REMARK  status: ('A' for Active; 'I' for Inactive)
REMARK    1  A    between atoms: C_5  and  N_6 
REMARK    2  A    between atoms: C_10  and  N_11 
REMARK    3  A    between atoms: C_14  and  C_15 
REMARK       I    between atoms: C_15  and  N_17 
ROOT
HETATM    1  N   UNK N   1      40.900  39.000  54.001  0.00  0.00    -0.284 N 
HETATM    2  N   UNK N   1      39.797  38.874  53.275  0.00  0.00    -0.292 N 
ATOM      3  HN  UNK N   1      38.846  38.876  53.644  1.00  0.00     0.187 HD
HETATM    4  C   UNK N   1      40.125  38.745  51.977  0.00  0.00     0.126 A 
HETATM    5  C   UNK N   1      41.509  38.797  51.865  0.00  0.00     0.019 A 
HETATM    6  C   UNK N   1      41.987  38.994  53.171  0.00  0.00     0.072 A 
HETATM    7  C   UNK N   1      43.455  39.149  53.545  0.00  0.00     0.014 A 
HETATM    8  C   UNK N   1      43.883  39.757  54.749  0.00  0.00     0.015 A 
HETATM    9  C   UNK N   1      45.245  39.875  55.048  0.00  0.00     0.001 A 
HETATM   10  C   UNK N   1      46.207  39.408  54.154  0.00  0.00     0.002 A 
HETATM   11  C   UNK N   1      45.813  38.846  52.944  0.00  0.00     0.024 A 
HETATM   12  C   UNK N   1      44.454  38.730  52.637  0.00  0.00     0.072 A 
HETATM   13  S   UNK N   1      43.955  38.084  51.073  0.00  0.00     0.180 S 
HETATM   14  O   UNK N   1      44.007  36.549  51.124  0.00  0.00    -0.222 OA
HETATM   15  O   UNK N   1      44.979  38.409  49.975  0.00  0.00    -0.222 OA
HETATM   16  C   UNK N   1      42.309  38.609  50.601  0.00  0.00     0.189 C 
ENDROOT
BRANCH   1  17
HETATM   17  C   UNK N   1      40.841  38.970  55.476  0.00  0.00     0.137 C 
HETATM   18  C   UNK N   1      40.916  40.364  56.086  0.00  0.00     0.031 C 
HETATM   19  C   UNK N   1      41.021  40.232  57.624  0.00  0.00     0.032 C 
HETATM   20  C   UNK N   1      40.328  38.958  58.169  0.00  0.00     0.273 C 
HETATM   21  N   UNK N   1      39.127  38.675  57.366  0.00  0.00     0.095 N 
HETATM   22  C   UNK N   1      39.506  38.315  55.962  0.00  0.00     0.300 C 
BRANCH  21  23
HETATM   23  C   UNK N   1      38.163  37.688  57.932  0.00  0.00     0.226 C 
HETATM   24  C   UNK N   1      37.047  38.296  58.810  0.00  0.00     0.066 C 
HETATM   25  C   UNK N   1      36.208  37.137  59.413  0.00  0.00     0.274 C 
HETATM   26  N   UNK N   1      35.792  36.096  58.429  0.00  0.00     0.084 N 
HETATM   27  C   UNK N   1      36.382  34.776  58.706  0.00  0.00     0.309 C 
HETATM   28  C   UNK N   1      36.016  36.513  57.038  0.00  0.00     0.274 C 
HETATM   29  C   UNK N   1      37.489  36.891  56.769  0.00  0.00     0.066 C 
ENDBRANCH  21  23
ENDBRANCH   1  17
BRANCH   4  30
HETATM   30  C   UNK N   1      39.152  38.470  50.862  0.00  0.00     0.272 C 
HETATM   31  O   UNK N   1      39.007  39.338  50.012  0.00  0.00    -0.266 OA
HETATM   32  N   UNK N   1      38.451  37.287  50.722  0.00  0.00    -0.343 N 
HETATM   33  C   UNK N   1      37.703  37.082  49.473  0.00  0.00     0.152 C 
HETATM   34  C   UNK N   1      38.611  36.186  51.680  0.00  0.00     0.152 C 
HETATM   35  C   UNK N   1      36.892  35.786  49.434  0.00  0.00     0.187 C 
HETATM   36  O   UNK N   1      37.619  34.729  50.024  0.00  0.00    -0.388 OA
HETATM   37  C   UNK N   1      37.677  35.003  51.407  0.00  0.00     0.187 C 
ENDBRANCH   4  30
TORSDOF 3
ENDMDL
MODEL 8
REMARK VINA RESULT:      -7.5      2.912      8.095
REMARK  3 active torsions:
REMARK  status: ('A' for Active; 'I' for Inactive)
REMARK    1  A    between atoms: C_5  and  N_6 
REMARK    2  A    between atoms: C_10  and  N_11 
REMARK    3  A    between atoms: C_14  and  C_15 
REMARK       I    between atoms: C_15  and  N_17 
ROOT
HETATM    1  N   UNK N   1      38.911  35.375  49.792  0.00  0.00    -0.284 N 
HETATM    2  N   UNK N   1      39.204  34.593  48.761  0.00  0.00    -0.292 N 
ATOM      3  HN  UNK N   1      38.608  33.848  48.400  1.00  0.00     0.187 HD
HETATM    4  C   UNK N   1      40.406  34.934  48.265  0.00  0.00     0.126 A 
HETATM    5  C   UNK N   1      40.907  35.993  49.011  0.00  0.00     0.019 A 
HETATM    6  C   UNK N   1      39.918  36.283  49.967  0.00  0.00     0.072 A 
HETATM    7  C   UNK N   1      40.006  37.401  50.996  0.00  0.00     0.014 A 
HETATM    8  C   UNK N   1      38.871  37.945  51.642  0.00  0.00     0.015 A 
HETATM    9  C   UNK N   1      39.005  38.973  52.583  0.00  0.00     0.001 A 
HETATM   10  C   UNK N   1      40.262  39.490  52.889  0.00  0.00     0.002 A 
HETATM   11  C   UNK N   1      41.389  39.003  52.236  0.00  0.00     0.024 A 
HETATM   12  C   UNK N   1      41.262  37.981  51.291  0.00  0.00     0.072 A 
HETATM   13  S   UNK N   1      42.681  37.412  50.410  0.00  0.00     0.180 S 
HETATM   14  O   UNK N   1      43.451  36.415  51.290  0.00  0.00    -0.222 OA
HETATM   15  O   UNK N   1      43.710  38.535  50.213  0.00  0.00    -0.222 OA
HETATM   16  C   UNK N   1      42.263  36.633  48.853  0.00  0.00     0.189 C 
ENDROOT
BRANCH   1  17
HETATM   17  C   UNK N   1      37.736  35.097  50.641  0.00  0.00     0.137 C 
HETATM   18  C   UNK N   1      36.758  34.136  49.979  0.00  0.00     0.031 C 
HETATM   19  C   UNK N   1      35.485  34.036  50.853  0.00  0.00     0.032 C 
HETATM   20  C   UNK N   1      35.767  34.265  52.358  0.00  0.00     0.273 C 
HETATM   21  N   UNK N   1      37.086  33.703  52.698  0.00  0.00     0.095 N 
HETATM   22  C   UNK N   1      38.175  34.459  52.001  0.00  0.00     0.300 C 
BRANCH  21  23
HETATM   23  C   UNK N   1      37.388  33.541  54.149  0.00  0.00     0.226 C 
HETATM   24  C   UNK N   1      37.841  34.831  54.868  0.00  0.00     0.066 C 
HETATM   25  C   UNK N   1      38.228  34.471  56.330  0.00  0.00     0.274 C 
HETATM   26  N   UNK N   1      37.230  33.623  57.043  0.00  0.00     0.084 N 
HETATM   27  C   UNK N   1      37.757  32.295  57.400  0.00  0.00     0.309 C 
HETATM   28  C   UNK N   1      35.952  33.528  56.324  0.00  0.00     0.274 C 
HETATM   29  C   UNK N   1      36.126  32.989  54.887  0.00  0.00     0.066 C 
ENDBRANCH  21  23
ENDBRANCH   1  17
BRANCH   4  30
HETATM   30  C   UNK N   1      41.126  34.203  47.162  0.00  0.00     0.272 C 
HETATM   31  O   UNK N   1      40.759  34.411  46.014  0.00  0.00    -0.266 OA
HETATM   32  N   UNK N   1      42.194  33.352  47.370  0.00  0.00    -0.343 N 
HETATM   33  C   UNK N   1      42.928  32.879  46.186  0.00  0.00     0.152 C 
HETATM   34  C   UNK N   1      42.715  33.092  48.717  0.00  0.00     0.152 C 
HETATM   35  C   UNK N   1      44.042  31.880  46.498  0.00  0.00     0.187 C 
HETATM   36  O   UNK N   1      44.729  32.253  47.673  0.00  0.00    -0.388 OA
HETATM   37  C   UNK N   1      43.834  32.047  48.745  0.00  0.00     0.187 C 
ENDBRANCH   4  30
TORSDOF 3
ENDMDL
MODEL 9
REMARK VINA RESULT:      -7.5      4.733      7.379
REMARK  3 active torsions:
REMARK  status: ('A' for Active; 'I' for Inactive)
REMARK    1  A    between atoms: C_5  and  N_6 
REMARK    2  A    between atoms: C_10  and  N_11 
REMARK    3  A    between atoms: C_14  and  C_15 
REMARK       I    between atoms: C_15  and  N_17 
ROOT
HETATM    1  N   UNK N   1      38.595  38.185  53.692  0.00  0.00    -0.284 N 
HETATM    2  N   UNK N   1      38.690  36.917  53.316  0.00  0.00    -0.292 N 
ATOM      3  HN  UNK N   1      39.554  36.447  53.042  1.00  0.00     0.187 HD
HETATM    4  C   UNK N   1      37.474  36.344  53.351  0.00  0.00     0.126 A 
HETATM    5  C   UNK N   1      36.553  37.292  53.778  0.00  0.00     0.019 A 
HETATM    6  C   UNK N   1      37.297  38.459  54.023  0.00  0.00     0.072 A 
HETATM    7  C   UNK N   1      36.717  39.766  54.546  0.00  0.00     0.014 A 
HETATM    8  C   UNK N   1      37.502  40.759  55.178  0.00  0.00     0.015 A 
HETATM    9  C   UNK N   1      36.921  41.946  55.640  0.00  0.00     0.001 A 
HETATM   10  C   UNK N   1      35.551  42.163  55.498  0.00  0.00     0.002 A 
HETATM   11  C   UNK N   1      34.752  41.184  54.919  0.00  0.00     0.024 A 
HETATM   12  C   UNK N   1      35.324  39.994  54.461  0.00  0.00     0.072 A 
HETATM   13  S   UNK N   1      34.301  38.722  53.792  0.00  0.00     0.180 S 
HETATM   14  O   UNK N   1      33.979  39.055  52.327  0.00  0.00    -0.222 OA
HETATM   15  O   UNK N   1      32.908  38.720  54.440  0.00  0.00    -0.222 OA
HETATM   16  C   UNK N   1      35.061  37.103  53.882  0.00  0.00     0.189 C 
ENDROOT
BRANCH   1  17
HETATM   17  C   UNK N   1      39.748  39.099  53.566  0.00  0.00     0.137 C 
HETATM   18  C   UNK N   1      40.617  39.111  54.817  0.00  0.00     0.031 C 
HETATM   19  C   UNK N   1      41.694  40.212  54.668  0.00  0.00     0.032 C 
HETATM   20  C   UNK N   1      42.092  40.471  53.194  0.00  0.00     0.273 C 
HETATM   21  N   UNK N   1      42.059  39.200  52.450  0.00  0.00     0.095 N 
HETATM   22  C   UNK N   1      40.658  38.677  52.365  0.00  0.00     0.300 C 
BRANCH  21  23
HETATM   23  C   UNK N   1      42.717  39.194  51.113  0.00  0.00     0.226 C 
HETATM   24  C   UNK N   1      43.962  38.286  51.003  0.00  0.00     0.066 C 
HETATM   25  C   UNK N   1      44.593  38.482  49.596  0.00  0.00     0.274 C 
HETATM   26  N   UNK N   1      43.621  38.422  48.468  0.00  0.00     0.084 N 
HETATM   27  C   UNK N   1      43.508  39.697  47.739  0.00  0.00     0.309 C 
HETATM   28  C   UNK N   1      42.306  37.912  48.881  0.00  0.00     0.274 C 
HETATM   29  C   UNK N   1      41.688  38.743  50.026  0.00  0.00     0.066 C 
ENDBRANCH  21  23
ENDBRANCH   1  17
BRANCH   4  30
HETATM   30  C   UNK N   1      37.162  34.946  52.888  0.00  0.00     0.272 C 
HETATM   31  O   UNK N   1      37.057  34.078  53.743  0.00  0.00    -0.266 OA
HETATM   32  N   UNK N   1      36.948  34.600  51.567  0.00  0.00    -0.343 N 
HETATM   33  C   UNK N   1      36.445  33.246  51.291  0.00  0.00     0.152 C 
HETATM   34  C   UNK N   1      37.015  35.599  50.494  0.00  0.00     0.152 C 
HETATM   35  C   UNK N   1      36.313  32.918  49.803  0.00  0.00     0.187 C 
HETATM   36  O   UNK N   1      35.819  34.033  49.092  0.00  0.00    -0.388 OA
HETATM   37  C   UNK N   1      36.846  35.000  49.095  0.00  0.00     0.187 C 
ENDBRANCH   4  30
TORSDOF 3
ENDMDL
