MODEL 1
REMARK VINA RESULT:      -8.7      0.000      0.000
REMARK  3 active torsions:
REMARK  status: ('A' for Active; 'I' for Inactive)
REMARK    1  A    between atoms: C_2  and  C_3 
REMARK       I    between atoms: C_2  and  N_31 
REMARK    2  A    between atoms: N_6  and  C_7 
REMARK    3  A    between atoms: N_10  and  C_11 
ROOT
HETATM    1  C   UNK N   1      38.918  35.111  49.368  0.00  0.00     0.126 A 
HETATM    2  N   UNK N   1      39.855  34.510  48.617  0.00  0.00    -0.292 N 
ATOM      3  HN  UNK N   1      39.675  33.768  47.940  1.00  0.00     0.187 HD
HETATM    4  N   UNK N   1      41.047  35.021  48.884  0.00  0.00    -0.284 N 
HETATM    5  C   UNK N   1      40.907  35.988  49.852  0.00  0.00     0.072 A 
HETATM    6  C   UNK N   1      39.536  36.079  50.149  0.00  0.00     0.019 A 
HETATM    7  C   UNK N   1      38.880  37.005  51.138  0.00  0.00     0.189 C 
HETATM    8  S   UNK N   1      39.873  38.498  51.162  0.00  0.00     0.183 S 
HETATM    9  O   UNK N   1      39.518  39.388  52.363  0.00  0.00    -0.222 OA
HETATM   10  O   UNK N   1      39.536  39.392  49.959  0.00  0.00    -0.222 OA
HETATM   11  C   UNK N   1      41.595  38.080  51.134  0.00  0.00     0.110 A 
HETATM   12  C   UNK N   1      42.552  38.914  51.737  0.00  0.00     0.138 A 
HETATM   13  F   UNK N   1      42.183  40.081  52.322  0.00  0.00    -0.204 F 
HETATM   14  C   UNK N   1      43.893  38.542  51.744  0.00  0.00     0.044 A 
HETATM   15  C   UNK N   1      44.280  37.340  51.162  0.00  0.00     0.004 A 
HETATM   16  C   UNK N   1      43.331  36.518  50.553  0.00  0.00     0.015 A 
HETATM   17  C   UNK N   1      41.971  36.867  50.507  0.00  0.00     0.018 A 
ENDROOT
BRANCH   4  18
HETATM   18  C   UNK N   1      42.205  34.537  48.109  0.00  0.00     0.138 C 
HETATM   19  C   UNK N   1      42.719  33.131  48.411  0.00  0.00     0.059 C 
HETATM   20  C   UNK N   1      43.137  32.614  47.028  0.00  0.00     0.275 C 
HETATM   21  N   UNK N   1      43.217  33.792  46.144  0.00  0.00     0.095 N 
HETATM   22  C   UNK N   1      42.147  34.690  46.602  0.00  0.00     0.300 C 
BRANCH  21  23
HETATM   23  C   UNK N   1      43.229  33.535  44.678  0.00  0.00     0.227 C 
HETATM   24  C   UNK N   1      42.847  32.076  44.330  0.00  0.00     0.062 C 
HETATM   25  C   UNK N   1      41.396  31.992  43.827  0.00  0.00     0.169 C 
HETATM   26  O   UNK N   1      41.177  32.752  42.636  0.00  0.00    -0.391 OA
HETATM   27  C   UNK N   1      41.994  33.917  42.505  0.00  0.00     0.169 C 
HETATM   28  C   UNK N   1      42.369  34.533  43.855  0.00  0.00     0.062 C 
ENDBRANCH  21  23
ENDBRANCH   4  18
BRANCH   1  29
HETATM   29  C   UNK N   1      37.486  34.661  49.439  0.00  0.00     0.272 C 
HETATM   30  O   UNK N   1      36.775  34.905  48.474  0.00  0.00    -0.266 OA
HETATM   31  N   UNK N   1      36.912  34.122  50.577  0.00  0.00    -0.343 N 
HETATM   32  C   UNK N   1      37.671  33.617  51.718  0.00  0.00     0.152 C 
HETATM   33  C   UNK N   1      35.459  34.043  50.713  0.00  0.00     0.152 C 
HETATM   34  C   UNK N   1      37.139  32.219  52.068  0.00  0.00     0.187 C 
HETATM   35  O   UNK N   1      35.746  32.262  52.324  0.00  0.00    -0.388 OA
HETATM   36  C   UNK N   1      35.059  32.629  51.139  0.00  0.00     0.187 C 
ENDBRANCH   1  29
TORSDOF 3
ENDMDL
MODEL 2
REMARK VINA RESULT:      -8.5      4.669      7.029
REMARK  3 active torsions:
REMARK  status: ('A' for Active; 'I' for Inactive)
REMARK    1  A    between atoms: C_2  and  C_3 
REMARK       I    between atoms: C_2  and  N_31 
REMARK    2  A    between atoms: N_6  and  C_7 
REMARK    3  A    between atoms: N_10  and  C_11 
ROOT
HETATM    1  C   UNK N   1      41.873  39.775  55.059  0.00  0.00     0.126 A 
HETATM    2  N   UNK N   1      41.069  39.589  54.000  0.00  0.00    -0.292 N 
ATOM      3  HN  UNK N   1      40.061  39.747  53.997  1.00  0.00     0.187 HD
HETATM    4  N   UNK N   1      41.775  39.169  52.962  0.00  0.00    -0.284 N 
HETATM    5  C   UNK N   1      43.093  39.061  53.338  0.00  0.00     0.072 A 
HETATM    6  C   UNK N   1      43.175  39.480  54.677  0.00  0.00     0.019 A 
HETATM    7  C   UNK N   1      44.413  39.553  55.533  0.00  0.00     0.189 C 
HETATM    8  S   UNK N   1      45.769  39.931  54.421  0.00  0.00     0.183 S 
HETATM    9  O   UNK N   1      47.129  39.703  55.098  0.00  0.00    -0.222 OA
HETATM   10  O   UNK N   1      45.795  41.431  54.089  0.00  0.00    -0.222 OA
HETATM   11  C   UNK N   1      45.607  38.990  52.928  0.00  0.00     0.110 A 
HETATM   12  C   UNK N   1      46.739  38.604  52.190  0.00  0.00     0.138 A 
HETATM   13  F   UNK N   1      47.983  38.978  52.582  0.00  0.00    -0.204 F 
HETATM   14  C   UNK N   1      46.591  37.825  51.046  0.00  0.00     0.044 A 
HETATM   15  C   UNK N   1      45.323  37.423  50.643  0.00  0.00     0.004 A 
HETATM   16  C   UNK N   1      44.199  37.815  51.370  0.00  0.00     0.015 A 
HETATM   17  C   UNK N   1      44.304  38.617  52.518  0.00  0.00     0.018 A 
ENDROOT
BRANCH   4  18
HETATM   18  C   UNK N   1      41.079  38.970  51.677  0.00  0.00     0.138 C 
HETATM   19  C   UNK N   1      41.406  39.935  50.539  0.00  0.00     0.059 C 
HETATM   20  C   UNK N   1      41.360  39.033  49.299  0.00  0.00     0.275 C 
HETATM   21  N   UNK N   1      40.667  37.795  49.704  0.00  0.00     0.095 N 
HETATM   22  C   UNK N   1      41.071  37.569  51.101  0.00  0.00     0.300 C 
BRANCH  21  23
HETATM   23  C   UNK N   1      40.822  36.614  48.813  0.00  0.00     0.227 C 
HETATM   24  C   UNK N   1      42.302  36.196  48.634  0.00  0.00     0.062 C 
HETATM   25  C   UNK N   1      42.634  34.964  49.492  0.00  0.00     0.169 C 
HETATM   26  O   UNK N   1      41.855  33.818  49.140  0.00  0.00    -0.391 OA
HETATM   27  C   UNK N   1      40.548  34.106  48.641  0.00  0.00     0.169 C 
HETATM   28  C   UNK N   1      39.959  35.391  49.228  0.00  0.00     0.062 C 
ENDBRANCH  21  23
ENDBRANCH   4  18
BRANCH   1  29
HETATM   29  C   UNK N   1      41.378  40.087  56.443  0.00  0.00     0.272 C 
HETATM   30  O   UNK N   1      41.701  41.165  56.923  0.00  0.00    -0.266 OA
HETATM   31  N   UNK N   1      40.708  39.172  57.236  0.00  0.00    -0.343 N 
HETATM   32  C   UNK N   1      40.109  37.938  56.737  0.00  0.00     0.152 C 
HETATM   33  C   UNK N   1      40.574  39.392  58.675  0.00  0.00     0.152 C 
HETATM   34  C   UNK N   1      38.667  37.857  57.263  0.00  0.00     0.187 C 
HETATM   35  O   UNK N   1      38.644  37.933  58.678  0.00  0.00    -0.388 OA
HETATM   36  C   UNK N   1      39.113  39.207  59.089  0.00  0.00     0.187 C 
ENDBRANCH   1  29
TORSDOF 3
ENDMDL
MODEL 3
REMARK VINA RESULT:      -8.3      4.822      8.748
REMARK  3 active torsions:
REMARK  status: ('A' for Active; 'I' for Inactive)
REMARK    1  A    between atoms: C_2  and  C_3 
REMARK       I    between atoms: C_2  and  N_31 
REMARK    2  A    between atoms: N_6  and  C_7 
REMARK    3  A    between atoms: N_10  and  C_11 
ROOT
HETATM    1  C   UNK N   1      40.852  38.782  51.712  0.00  0.00     0.126 A 
HETATM    2  N   UNK N   1      40.697  38.945  53.036  0.00  0.00    -0.292 N 
ATOM      3  HN  UNK N   1      39.799  39.017  53.514  1.00  0.00     0.187 HD
HETATM    4  N   UNK N   1      41.880  39.000  53.629  0.00  0.00    -0.284 N 
HETATM    5  C   UNK N   1      42.860  38.881  52.672  0.00  0.00     0.072 A 
HETATM    6  C   UNK N   1      42.212  38.707  51.437  0.00  0.00     0.019 A 
HETATM    7  C   UNK N   1      42.858  38.519  50.089  0.00  0.00     0.189 C 
HETATM    8  S   UNK N   1      44.399  37.653  50.389  0.00  0.00     0.183 S 
HETATM    9  O   UNK N   1      45.315  37.693  49.156  0.00  0.00    -0.222 OA
HETATM   10  O   UNK N   1      44.147  36.149  50.583  0.00  0.00    -0.222 OA
HETATM   11  C   UNK N   1      45.197  38.316  51.826  0.00  0.00     0.110 A 
HETATM   12  C   UNK N   1      46.596  38.298  51.950  0.00  0.00     0.138 A 
HETATM   13  F   UNK N   1      47.370  37.736  50.988  0.00  0.00    -0.204 F 
HETATM   14  C   UNK N   1      47.203  38.868  53.066  0.00  0.00     0.044 A 
HETATM   15  C   UNK N   1      46.421  39.460  54.051  0.00  0.00     0.004 A 
HETATM   16  C   UNK N   1      45.031  39.467  53.933  0.00  0.00     0.015 A 
HETATM   17  C   UNK N   1      44.380  38.887  52.833  0.00  0.00     0.018 A 
ENDROOT
BRANCH   4  18
HETATM   18  C   UNK N   1      41.921  39.109  55.099  0.00  0.00     0.138 C 
HETATM   19  C   UNK N   1      42.198  40.487  55.698  0.00  0.00     0.059 C 
HETATM   20  C   UNK N   1      41.310  40.503  56.949  0.00  0.00     0.275 C 
HETATM   21  N   UNK N   1      40.918  39.105  57.205  0.00  0.00     0.095 N 
HETATM   22  C   UNK N   1      40.772  38.496  55.874  0.00  0.00     0.300 C 
BRANCH  21  23
HETATM   23  C   UNK N   1      39.764  38.885  58.120  0.00  0.00     0.227 C 
HETATM   24  C   UNK N   1      38.616  39.895  57.877  0.00  0.00     0.062 C 
HETATM   25  C   UNK N   1      37.469  39.244  57.086  0.00  0.00     0.169 C 
HETATM   26  O   UNK N   1      36.882  38.136  57.771  0.00  0.00    -0.391 OA
HETATM   27  C   UNK N   1      37.774  37.406  58.616  0.00  0.00     0.169 C 
HETATM   28  C   UNK N   1      39.219  37.431  58.112  0.00  0.00     0.062 C 
ENDBRANCH  21  23
ENDBRANCH   4  18
BRANCH   1  29
HETATM   29  C   UNK N   1      39.725  38.848  50.721  0.00  0.00     0.272 C 
HETATM   30  O   UNK N   1      39.716  39.794  49.946  0.00  0.00    -0.266 OA
HETATM   31  N   UNK N   1      38.644  37.984  50.740  0.00  0.00    -0.343 N 
HETATM   32  C   UNK N   1      38.613  36.725  51.478  0.00  0.00     0.152 C 
HETATM   33  C   UNK N   1      37.420  38.307  50.007  0.00  0.00     0.152 C 
HETATM   34  C   UNK N   1      38.131  35.620  50.524  0.00  0.00     0.187 C 
HETATM   35  O   UNK N   1      36.869  35.952  49.970  0.00  0.00    -0.388 OA
HETATM   36  C   UNK N   1      36.999  37.106  49.157  0.00  0.00     0.187 C 
ENDBRANCH   1  29
TORSDOF 3
ENDMDL
MODEL 4
REMARK VINA RESULT:      -8.3      4.618      6.872
REMARK  3 active torsions:
REMARK  status: ('A' for Active; 'I' for Inactive)
REMARK    1  A    between atoms: C_2  and  C_3 
REMARK       I    between atoms: C_2  and  N_31 
REMARK    2  A    between atoms: N_6  and  C_7 
REMARK    3  A    between atoms: N_10  and  C_11 
ROOT
HETATM    1  C   UNK N   1      39.511  39.553  54.710  0.00  0.00     0.126 A 
HETATM    2  N   UNK N   1      39.270  39.326  53.408  0.00  0.00    -0.292 N 
ATOM      3  HN  UNK N   1      38.347  39.337  52.974  1.00  0.00     0.187 HD
HETATM    4  N   UNK N   1      40.406  39.085  52.772  0.00  0.00    -0.284 N 
HETATM    5  C   UNK N   1      41.440  39.142  53.676  0.00  0.00     0.072 A 
HETATM    6  C   UNK N   1      40.881  39.475  54.922  0.00  0.00     0.019 A 
HETATM    7  C   UNK N   1      41.612  39.667  56.224  0.00  0.00     0.189 C 
HETATM    8  S   UNK N   1      43.231  40.312  55.800  0.00  0.00     0.183 S 
HETATM    9  O   UNK N   1      44.196  40.236  56.994  0.00  0.00    -0.222 OA
HETATM   10  O   UNK N   1      43.155  41.819  55.512  0.00  0.00    -0.222 OA
HETATM   11  C   UNK N   1      43.868  39.463  54.381  0.00  0.00     0.110 A 
HETATM   12  C   UNK N   1      45.251  39.297  54.197  0.00  0.00     0.138 A 
HETATM   13  F   UNK N   1      46.135  39.818  55.084  0.00  0.00    -0.204 F 
HETATM   14  C   UNK N   1      45.727  38.585  53.099  0.00  0.00     0.044 A 
HETATM   15  C   UNK N   1      44.830  38.033  52.193  0.00  0.00     0.004 A 
HETATM   16  C   UNK N   1      43.457  38.207  52.369  0.00  0.00     0.015 A 
HETATM   17  C   UNK N   1      42.938  38.935  53.452  0.00  0.00     0.018 A 
ENDROOT
BRANCH   4  18
HETATM   18  C   UNK N   1      40.359  38.877  51.312  0.00  0.00     0.138 C 
HETATM   19  C   UNK N   1      41.145  39.849  50.434  0.00  0.00     0.059 C 
HETATM   20  C   UNK N   1      41.670  38.947  49.309  0.00  0.00     0.275 C 
HETATM   21  N   UNK N   1      40.887  37.698  49.370  0.00  0.00     0.095 N 
HETATM   22  C   UNK N   1      40.629  37.476  50.801  0.00  0.00     0.300 C 
BRANCH  21  23
HETATM   23  C   UNK N   1      41.441  36.521  48.648  0.00  0.00     0.227 C 
HETATM   24  C   UNK N   1      42.876  36.165  49.108  0.00  0.00     0.062 C 
HETATM   25  C   UNK N   1      42.865  34.950  50.052  0.00  0.00     0.169 C 
HETATM   26  O   UNK N   1      42.345  33.771  49.433  0.00  0.00    -0.391 OA
HETATM   27  C   UNK N   1      41.354  34.003  48.430  0.00  0.00     0.169 C 
HETATM   28  C   UNK N   1      40.529  35.265  48.694  0.00  0.00     0.062 C 
ENDBRANCH  21  23
ENDBRANCH   4  18
BRANCH   1  29
HETATM   29  C   UNK N   1      38.435  39.693  55.749  0.00  0.00     0.272 C 
HETATM   30  O   UNK N   1      38.189  38.711  56.435  0.00  0.00    -0.266 OA
HETATM   31  N   UNK N   1      37.630  40.813  55.866  0.00  0.00    -0.343 N 
HETATM   32  C   UNK N   1      37.924  42.102  55.247  0.00  0.00     0.152 C 
HETATM   33  C   UNK N   1      36.385  40.759  56.630  0.00  0.00     0.152 C 
HETATM   34  C   UNK N   1      37.787  43.193  56.321  0.00  0.00     0.187 C 
HETATM   35  O   UNK N   1      36.498  43.159  56.909  0.00  0.00    -0.388 OA
HETATM   36  C   UNK N   1      36.330  41.936  57.606  0.00  0.00     0.187 C 
ENDBRANCH   1  29
TORSDOF 3
ENDMDL
MODEL 5
REMARK VINA RESULT:      -7.7      2.339      7.145
REMARK  3 active torsions:
REMARK  status: ('A' for Active; 'I' for Inactive)
REMARK    1  A    between atoms: C_2  and  C_3 
REMARK       I    between atoms: C_2  and  N_31 
REMARK    2  A    between atoms: N_6  and  C_7 
REMARK    3  A    between atoms: N_10  and  C_11 
ROOT
HETATM    1  C   UNK N   1      40.493  34.705  48.203  0.00  0.00     0.126 A 
HETATM    2  N   UNK N   1      39.361  34.201  48.720  0.00  0.00    -0.292 N 
ATOM      3  HN  UNK N   1      38.882  33.368  48.377  1.00  0.00     0.187 HD
HETATM    4  N   UNK N   1      38.958  34.943  49.740  0.00  0.00    -0.284 N 
HETATM    5  C   UNK N   1      39.841  35.984  49.906  0.00  0.00     0.072 A 
HETATM    6  C   UNK N   1      40.852  35.824  48.943  0.00  0.00     0.019 A 
HETATM    7  C   UNK N   1      42.054  36.707  48.732  0.00  0.00     0.189 C 
HETATM    8  S   UNK N   1      42.488  37.357  50.346  0.00  0.00     0.183 S 
HETATM    9  O   UNK N   1      43.477  38.528  50.232  0.00  0.00    -0.222 OA
HETATM   10  O   UNK N   1      43.277  36.316  51.156  0.00  0.00    -0.222 OA
HETATM   11  C   UNK N   1      41.021  37.815  51.229  0.00  0.00     0.110 A 
HETATM   12  C   UNK N   1      41.040  38.855  52.174  0.00  0.00     0.138 A 
HETATM   13  F   UNK N   1      42.193  39.508  52.463  0.00  0.00    -0.204 F 
HETATM   14  C   UNK N   1      39.865  39.228  52.820  0.00  0.00     0.044 A 
HETATM   15  C   UNK N   1      38.674  38.577  52.521  0.00  0.00     0.004 A 
HETATM   16  C   UNK N   1      38.658  37.537  51.590  0.00  0.00     0.015 A 
HETATM   17  C   UNK N   1      39.825  37.117  50.932  0.00  0.00     0.018 A 
ENDROOT
BRANCH   4  18
HETATM   18  C   UNK N   1      37.762  34.513  50.488  0.00  0.00     0.138 C 
HETATM   19  C   UNK N   1      36.943  33.361  49.909  0.00  0.00     0.059 C 
HETATM   20  C   UNK N   1      36.491  32.597  51.161  0.00  0.00     0.275 C 
HETATM   21  N   UNK N   1      36.709  33.500  52.307  0.00  0.00     0.095 N 
HETATM   22  C   UNK N   1      37.925  34.258  51.973  0.00  0.00     0.300 C 
BRANCH  21  23
HETATM   23  C   UNK N   1      36.714  32.881  53.660  0.00  0.00     0.227 C 
HETATM   24  C   UNK N   1      36.913  31.346  53.610  0.00  0.00     0.062 C 
HETATM   25  C   UNK N   1      38.356  30.966  53.979  0.00  0.00     0.169 C 
HETATM   26  O   UNK N   1      38.714  31.367  55.304  0.00  0.00    -0.391 OA
HETATM   27  C   UNK N   1      38.061  32.548  55.774  0.00  0.00     0.169 C 
HETATM   28  C   UNK N   1      37.725  33.527  54.647  0.00  0.00     0.062 C 
ENDBRANCH  21  23
ENDBRANCH   4  18
BRANCH   1  29
HETATM   29  C   UNK N   1      41.130  34.208  46.936  0.00  0.00     0.272 C 
HETATM   30  O   UNK N   1      40.575  34.491  45.884  0.00  0.00    -0.266 OA
HETATM   31  N   UNK N   1      42.211  33.345  46.914  0.00  0.00    -0.343 N 
HETATM   32  C   UNK N   1      43.068  33.075  48.065  0.00  0.00     0.152 C 
HETATM   33  C   UNK N   1      42.556  32.614  45.697  0.00  0.00     0.152 C 
HETATM   34  C   UNK N   1      44.531  33.231  47.622  0.00  0.00     0.187 C 
HETATM   35  O   UNK N   1      44.816  32.378  46.526  0.00  0.00    -0.388 OA
HETATM   36  C   UNK N   1      44.049  32.780  45.403  0.00  0.00     0.187 C 
ENDBRANCH   1  29
TORSDOF 3
ENDMDL
MODEL 6
REMARK VINA RESULT:      -7.7      2.236      6.904
REMARK  3 active torsions:
REMARK  status: ('A' for Active; 'I' for Inactive)
REMARK    1  A    between atoms: C_2  and  C_3 
REMARK       I    between atoms: C_2  and  N_31 
REMARK    2  A    between atoms: N_6  and  C_7 
REMARK    3  A    between atoms: N_10  and  C_11 
ROOT
HETATM    1  C   UNK N   1      40.660  34.786  48.187  0.00  0.00     0.126 A 
HETATM    2  N   UNK N   1      39.535  34.325  48.758  0.00  0.00    -0.292 N 
ATOM      3  HN  UNK N   1      39.016  33.504  48.447  1.00  0.00     0.187 HD
HETATM    4  N   UNK N   1      39.197  35.094  49.782  0.00  0.00    -0.284 N 
HETATM    5  C   UNK N   1      40.118  36.108  49.896  0.00  0.00     0.072 A 
HETATM    6  C   UNK N   1      41.084  35.903  48.896  0.00  0.00     0.019 A 
HETATM    7  C   UNK N   1      42.304  36.743  48.622  0.00  0.00     0.189 C 
HETATM    8  S   UNK N   1      42.824  37.401  50.208  0.00  0.00     0.183 S 
HETATM    9  O   UNK N   1      43.844  38.538  50.036  0.00  0.00    -0.222 OA
HETATM   10  O   UNK N   1      43.612  36.347  51.000  0.00  0.00    -0.222 OA
HETATM   11  C   UNK N   1      41.409  37.918  51.142  0.00  0.00     0.110 A 
HETATM   12  C   UNK N   1      41.500  38.969  52.071  0.00  0.00     0.138 A 
HETATM   13  F   UNK N   1      42.684  39.589  52.302  0.00  0.00    -0.204 F 
HETATM   14  C   UNK N   1      40.365  39.389  52.759  0.00  0.00     0.044 A 
HETATM   15  C   UNK N   1      39.143  38.772  52.517  0.00  0.00     0.004 A 
HETATM   16  C   UNK N   1      39.056  37.721  51.604  0.00  0.00     0.015 A 
HETATM   17  C   UNK N   1      40.181  37.255  50.905  0.00  0.00     0.018 A 
ENDROOT
BRANCH   4  18
HETATM   18  C   UNK N   1      38.020  34.712  50.584  0.00  0.00     0.138 C 
HETATM   19  C   UNK N   1      36.680  35.349  50.220  0.00  0.00     0.059 C 
HETATM   20  C   UNK N   1      35.681  34.210  50.463  0.00  0.00     0.275 C 
HETATM   21  N   UNK N   1      36.385  33.198  51.273  0.00  0.00     0.095 N 
HETATM   22  C   UNK N   1      37.779  33.233  50.805  0.00  0.00     0.300 C 
BRANCH  21  23
HETATM   23  C   UNK N   1      35.780  31.839  51.327  0.00  0.00     0.227 C 
HETATM   24  C   UNK N   1      34.651  31.734  52.381  0.00  0.00     0.062 C 
HETATM   25  C   UNK N   1      33.267  31.777  51.712  0.00  0.00     0.169 C 
HETATM   26  O   UNK N   1      33.058  30.696  50.801  0.00  0.00    -0.391 OA
HETATM   27  C   UNK N   1      34.237  30.217  50.151  0.00  0.00     0.169 C 
HETATM   28  C   UNK N   1      35.289  31.311  49.951  0.00  0.00     0.062 C 
ENDBRANCH  21  23
ENDBRANCH   4  18
BRANCH   1  29
HETATM   29  C   UNK N   1      41.227  34.252  46.903  0.00  0.00     0.272 C 
HETATM   30  O   UNK N   1      40.620  34.510  45.874  0.00  0.00    -0.266 OA
HETATM   31  N   UNK N   1      42.302  33.381  46.849  0.00  0.00    -0.343 N 
HETATM   32  C   UNK N   1      43.216  33.137  47.961  0.00  0.00     0.152 C 
HETATM   33  C   UNK N   1      42.580  32.616  45.635  0.00  0.00     0.152 C 
HETATM   34  C   UNK N   1      44.655  33.272  47.439  0.00  0.00     0.187 C 
HETATM   35  O   UNK N   1      44.879  32.389  46.353  0.00  0.00    -0.388 OA
HETATM   36  C   UNK N   1      44.057  32.765  45.261  0.00  0.00     0.187 C 
ENDBRANCH   1  29
TORSDOF 3
ENDMDL
MODEL 7
REMARK VINA RESULT:      -7.7      5.808      8.205
REMARK  3 active torsions:
REMARK  status: ('A' for Active; 'I' for Inactive)
REMARK    1  A    between atoms: C_2  and  C_3 
REMARK       I    between atoms: C_2  and  N_31 
REMARK    2  A    between atoms: N_6  and  C_7 
REMARK    3  A    between atoms: N_10  and  C_11 
ROOT
HETATM    1  C   UNK N   1      40.448  40.245  55.850  0.00  0.00     0.126 A 
HETATM    2  N   UNK N   1      41.735  40.406  55.501  0.00  0.00    -0.292 N 
ATOM      3  HN  UNK N   1      42.480  40.701  56.132  1.00  0.00     0.187 HD
HETATM    4  N   UNK N   1      41.895  40.126  54.216  0.00  0.00    -0.284 N 
HETATM    5  C   UNK N   1      40.675  39.776  53.685  0.00  0.00     0.072 A 
HETATM    6  C   UNK N   1      39.741  39.817  54.734  0.00  0.00     0.019 A 
HETATM    7  C   UNK N   1      38.270  39.503  54.655  0.00  0.00     0.189 C 
HETATM    8  S   UNK N   1      38.094  38.248  53.385  0.00  0.00     0.183 S 
HETATM    9  O   UNK N   1      36.626  38.078  52.965  0.00  0.00    -0.222 OA
HETATM   10  O   UNK N   1      38.457  36.861  53.940  0.00  0.00    -0.222 OA
HETATM   11  C   UNK N   1      39.137  38.633  52.005  0.00  0.00     0.110 A 
HETATM   12  C   UNK N   1      38.788  38.238  50.702  0.00  0.00     0.138 A 
HETATM   13  F   UNK N   1      37.661  37.518  50.475  0.00  0.00    -0.204 F 
HETATM   14  C   UNK N   1      39.599  38.593  49.628  0.00  0.00     0.044 A 
HETATM   15  C   UNK N   1      40.748  39.344  49.847  0.00  0.00     0.004 A 
HETATM   16  C   UNK N   1      41.100  39.726  51.142  0.00  0.00     0.015 A 
HETATM   17  C   UNK N   1      40.319  39.372  52.255  0.00  0.00     0.018 A 
ENDROOT
BRANCH   4  18
HETATM   18  C   UNK N   1      43.257  40.178  53.654  0.00  0.00     0.138 C 
HETATM   19  C   UNK N   1      44.409  40.455  54.617  0.00  0.00     0.059 C 
HETATM   20  C   UNK N   1      45.539  39.578  54.063  0.00  0.00     0.275 C 
HETATM   21  N   UNK N   1      45.142  39.192  52.696  0.00  0.00     0.095 N 
HETATM   22  C   UNK N   1      43.680  39.037  52.750  0.00  0.00     0.300 C 
BRANCH  21  23
HETATM   23  C   UNK N   1      45.866  38.047  52.081  0.00  0.00     0.227 C 
HETATM   24  C   UNK N   1      45.235  37.597  50.741  0.00  0.00     0.062 C 
HETATM   25  C   UNK N   1      46.056  38.109  49.546  0.00  0.00     0.169 C 
HETATM   26  O   UNK N   1      47.395  37.610  49.539  0.00  0.00    -0.391 OA
HETATM   27  C   UNK N   1      47.952  37.354  50.830  0.00  0.00     0.169 C 
HETATM   28  C   UNK N   1      47.392  38.283  51.910  0.00  0.00     0.062 C 
ENDBRANCH  21  23
ENDBRANCH   4  18
BRANCH   1  29
HETATM   29  C   UNK N   1      39.888  40.638  57.188  0.00  0.00     0.272 C 
HETATM   30  O   UNK N   1      39.296  41.706  57.254  0.00  0.00    -0.266 OA
HETATM   31  N   UNK N   1      40.130  39.930  58.353  0.00  0.00    -0.343 N 
HETATM   32  C   UNK N   1      40.656  38.569  58.390  0.00  0.00     0.152 C 
HETATM   33  C   UNK N   1      39.878  40.537  59.659  0.00  0.00     0.152 C 
HETATM   34  C   UNK N   1      39.762  37.733  59.320  0.00  0.00     0.187 C 
HETATM   35  O   UNK N   1      39.691  38.320  60.608  0.00  0.00    -0.388 OA
HETATM   36  C   UNK N   1      39.049  39.581  60.518  0.00  0.00     0.187 C 
ENDBRANCH   1  29
TORSDOF 3
ENDMDL
MODEL 8
REMARK VINA RESULT:      -7.6      6.022      8.128
REMARK  3 active torsions:
REMARK  status: ('A' for Active; 'I' for Inactive)
REMARK    1  A    between atoms: C_2  and  C_3 
REMARK       I    between atoms: C_2  and  N_31 
REMARK    2  A    between atoms: N_6  and  C_7 
REMARK    3  A    between atoms: N_10  and  C_11 
ROOT
HETATM    1  C   UNK N   1      37.677  36.724  52.985  0.00  0.00     0.126 A 
HETATM    2  N   UNK N   1      38.845  37.303  53.311  0.00  0.00    -0.292 N 
ATOM      3  HN  UNK N   1      39.766  36.903  53.130  1.00  0.00     0.187 HD
HETATM    4  N   UNK N   1      38.625  38.467  53.903  0.00  0.00    -0.284 N 
HETATM    5  C   UNK N   1      37.268  38.672  53.986  0.00  0.00     0.072 A 
HETATM    6  C   UNK N   1      36.646  37.572  53.369  0.00  0.00     0.019 A 
HETATM    7  C   UNK N   1      35.168  37.342  53.197  0.00  0.00     0.189 C 
HETATM    8  S   UNK N   1      34.424  38.966  53.029  0.00  0.00     0.183 S 
HETATM    9  O   UNK N   1      32.897  38.902  53.185  0.00  0.00    -0.222 OA
HETATM   10  O   UNK N   1      34.603  39.498  51.598  0.00  0.00    -0.222 OA
HETATM   11  C   UNK N   1      35.160  40.091  54.183  0.00  0.00     0.110 A 
HETATM   12  C   UNK N   1      34.430  41.172  54.705  0.00  0.00     0.138 A 
HETATM   13  F   UNK N   1      33.154  41.404  54.308  0.00  0.00    -0.204 F 
HETATM   14  C   UNK N   1      35.014  42.016  55.647  0.00  0.00     0.044 A 
HETATM   15  C   UNK N   1      36.315  41.779  56.074  0.00  0.00     0.004 A 
HETATM   16  C   UNK N   1      37.044  40.712  55.546  0.00  0.00     0.015 A 
HETATM   17  C   UNK N   1      36.498  39.850  54.581  0.00  0.00     0.018 A 
ENDROOT
BRANCH   4  18
HETATM   18  C   UNK N   1      39.789  39.291  54.278  0.00  0.00     0.138 C 
HETATM   19  C   UNK N   1      40.437  39.022  55.636  0.00  0.00     0.059 C 
HETATM   20  C   UNK N   1      41.929  39.233  55.352  0.00  0.00     0.275 C 
HETATM   21  N   UNK N   1      42.017  39.949  54.065  0.00  0.00     0.095 N 
HETATM   22  C   UNK N   1      40.902  39.428  53.259  0.00  0.00     0.300 C 
BRANCH  21  23
HETATM   23  C   UNK N   1      43.338  39.941  53.379  0.00  0.00     0.227 C 
HETATM   24  C   UNK N   1      44.333  40.951  53.999  0.00  0.00     0.062 C 
HETATM   25  C   UNK N   1      45.357  40.234  54.895  0.00  0.00     0.169 C 
HETATM   26  O   UNK N   1      46.152  39.285  54.180  0.00  0.00    -0.391 OA
HETATM   27  C   UNK N   1      45.499  38.664  53.072  0.00  0.00     0.169 C 
HETATM   28  C   UNK N   1      43.987  38.534  53.273  0.00  0.00     0.062 C 
ENDBRANCH  21  23
ENDBRANCH   4  18
BRANCH   1  29
HETATM   29  C   UNK N   1      37.555  35.325  52.453  0.00  0.00     0.272 C 
HETATM   30  O   UNK N   1      37.657  35.177  51.243  0.00  0.00    -0.266 OA
HETATM   31  N   UNK N   1      37.198  34.241  53.235  0.00  0.00    -0.343 N 
HETATM   32  C   UNK N   1      37.223  34.239  54.695  0.00  0.00     0.152 C 
HETATM   33  C   UNK N   1      36.743  32.996  52.619  0.00  0.00     0.152 C 
HETATM   34  C   UNK N   1      37.977  32.984  55.162  0.00  0.00     0.187 C 
HETATM   35  O   UNK N   1      37.379  31.814  54.631  0.00  0.00    -0.388 OA
HETATM   36  C   UNK N   1      37.509  31.815  53.220  0.00  0.00     0.187 C 
ENDBRANCH   1  29
TORSDOF 3
ENDMDL
MODEL 9
REMARK VINA RESULT:      -7.5      4.314      7.880
REMARK  3 active torsions:
REMARK  status: ('A' for Active; 'I' for Inactive)
REMARK    1  A    between atoms: C_2  and  C_3 
REMARK       I    between atoms: C_2  and  N_31 
REMARK    2  A    between atoms: N_6  and  C_7 
REMARK    3  A    between atoms: N_10  and  C_11 
ROOT
HETATM    1  C   UNK N   1      40.900  38.851  51.517  0.00  0.00     0.126 A 
HETATM    2  N   UNK N   1      39.728  38.194  51.529  0.00  0.00    -0.292 N 
ATOM      3  HN  UNK N   1      39.386  37.595  50.777  1.00  0.00     0.187 HD
HETATM    4  N   UNK N   1      39.082  38.438  52.659  0.00  0.00    -0.284 N 
HETATM    5  C   UNK N   1      39.838  39.294  53.424  0.00  0.00     0.072 A 
HETATM    6  C   UNK N   1      41.026  39.541  52.715  0.00  0.00     0.019 A 
HETATM    7  C   UNK N   1      42.180  40.409  53.147  0.00  0.00     0.189 C 
HETATM    8  S   UNK N   1      42.244  40.302  54.937  0.00  0.00     0.183 S 
HETATM    9  O   UNK N   1      43.149  41.392  55.531  0.00  0.00    -0.222 OA
HETATM   10  O   UNK N   1      42.934  39.002  55.377  0.00  0.00    -0.222 OA
HETATM   11  C   UNK N   1      40.604  40.366  55.606  0.00  0.00     0.110 A 
HETATM   12  C   UNK N   1      40.364  40.903  56.882  0.00  0.00     0.138 A 
HETATM   13  F   UNK N   1      41.389  41.351  57.649  0.00  0.00    -0.204 F 
HETATM   14  C   UNK N   1      39.062  40.987  57.368  0.00  0.00     0.044 A 
HETATM   15  C   UNK N   1      38.003  40.546  56.584  0.00  0.00     0.004 A 
HETATM   16  C   UNK N   1      38.243  40.002  55.322  0.00  0.00     0.015 A 
HETATM   17  C   UNK N   1      39.542  39.882  54.804  0.00  0.00     0.018 A 
ENDROOT
BRANCH   4  18
HETATM   18  C   UNK N   1      37.798  37.751  52.892  0.00  0.00     0.138 C 
HETATM   19  C   UNK N   1      36.588  38.222  52.087  0.00  0.00     0.059 C 
HETATM   20  C   UNK N   1      35.830  36.916  51.811  0.00  0.00     0.275 C 
HETATM   21  N   UNK N   1      36.377  35.908  52.739  0.00  0.00     0.095 N 
HETATM   22  C   UNK N   1      37.805  36.236  52.866  0.00  0.00     0.300 C 
BRANCH  21  23
HETATM   23  C   UNK N   1      36.092  34.481  52.427  0.00  0.00     0.227 C 
HETATM   24  C   UNK N   1      35.970  34.220  50.906  0.00  0.00     0.062 C 
HETATM   25  C   UNK N   1      37.248  33.565  50.356  0.00  0.00     0.169 C 
HETATM   26  O   UNK N   1      37.521  32.295  50.953  0.00  0.00    -0.391 OA
HETATM   27  C   UNK N   1      37.079  32.156  52.305  0.00  0.00     0.169 C 
HETATM   28  C   UNK N   1      37.091  33.481  53.071  0.00  0.00     0.062 C 
ENDBRANCH  21  23
ENDBRANCH   4  18
BRANCH   1  29
HETATM   29  C   UNK N   1      41.804  38.929  50.320  0.00  0.00     0.272 C 
HETATM   30  O   UNK N   1      41.409  39.581  49.363  0.00  0.00    -0.266 OA
HETATM   31  N   UNK N   1      42.972  38.198  50.198  0.00  0.00    -0.343 N 
HETATM   32  C   UNK N   1      43.643  37.533  51.312  0.00  0.00     0.152 C 
HETATM   33  C   UNK N   1      43.613  38.029  48.895  0.00  0.00     0.152 C 
HETATM   34  C   UNK N   1      45.130  37.921  51.278  0.00  0.00     0.187 C 
HETATM   35  O   UNK N   1      45.706  37.589  50.025  0.00  0.00    -0.388 OA
HETATM   36  C   UNK N   1      45.101  38.368  49.007  0.00  0.00     0.187 C 
ENDBRANCH   1  29
TORSDOF 3
ENDMDL
