MODEL 1
REMARK VINA RESULT:      -8.8      0.000      0.000
REMARK  5 active torsions:
REMARK  status: ('A' for Active; 'I' for Inactive)
REMARK    1  A    between atoms: C_2  and  C_3 
REMARK       I    between atoms: C_2  and  N_34 
REMARK    2  A    between atoms: N_6  and  C_7 
REMARK    3  A    between atoms: N_11  and  C_12 
REMARK    4  A    between atoms: C_12  and  C_13 
REMARK    5  A    between atoms: C_13  and  N_14 
ROOT
HETATM    1  C   UNK N   1      41.081  37.974  49.839  0.00  0.00     0.126 A 
HETATM    2  N   UNK N   1      41.375  36.939  49.028  0.00  0.00    -0.292 N 
ATOM      3  HN  UNK N   1      40.709  36.443  48.436  1.00  0.00     0.187 HD
HETATM    4  N   UNK N   1      42.669  36.667  49.122  0.00  0.00    -0.284 N 
HETATM    5  C   UNK N   1      43.252  37.558  49.968  0.00  0.00     0.072 A 
HETATM    6  C   UNK N   1      42.240  38.369  50.489  0.00  0.00     0.019 A 
HETATM    7  C   UNK N   1      42.381  39.413  51.566  0.00  0.00     0.189 C 
HETATM    8  S   UNK N   1      43.783  38.889  52.584  0.00  0.00     0.183 S 
HETATM    9  O   UNK N   1      43.352  37.821  53.602  0.00  0.00    -0.222 OA
HETATM   10  O   UNK N   1      44.277  40.036  53.479  0.00  0.00    -0.222 OA
HETATM   11  C   UNK N   1      45.084  38.256  51.554  0.00  0.00     0.110 A 
HETATM   12  C   UNK N   1      46.434  38.377  51.914  0.00  0.00     0.138 A 
HETATM   13  F   UNK N   1      46.784  38.906  53.112  0.00  0.00    -0.204 F 
HETATM   14  C   UNK N   1      47.428  37.969  51.024  0.00  0.00     0.044 A 
HETATM   15  C   UNK N   1      47.079  37.457  49.774  0.00  0.00     0.004 A 
HETATM   16  C   UNK N   1      45.735  37.308  49.423  0.00  0.00     0.015 A 
HETATM   17  C   UNK N   1      44.713  37.678  50.323  0.00  0.00     0.018 A 
ENDROOT
BRANCH   4  18
HETATM   18  C   UNK N   1      43.242  35.469  48.485  0.00  0.00     0.137 C 
HETATM   19  C   UNK N   1      43.098  34.252  49.439  0.00  0.00     0.031 C 
HETATM   20  C   UNK N   1      42.659  32.982  48.705  0.00  0.00     0.032 C 
HETATM   21  C   UNK N   1      43.420  32.814  47.386  0.00  0.00     0.272 C 
HETATM   22  N   UNK N   1      43.315  34.015  46.507  0.00  0.00     0.092 N 
HETATM   23  C   UNK N   1      42.628  35.186  47.106  0.00  0.00     0.299 C 
BRANCH  22  24
HETATM   24  C   UNK N   1      42.866  33.729  45.129  0.00  0.00     0.302 C 
BRANCH  24  25
HETATM   25  C   UNK N   1      41.347  33.932  44.990  0.00  0.00     0.302 C 
BRANCH  25  26
HETATM   26  N   UNK N   1      40.923  33.954  43.575  0.00  0.00     0.094 N 
HETATM   27  C   UNK N   1      41.921  33.309  42.703  0.00  0.00     0.298 C 
HETATM   28  C   UNK N   1      41.437  33.369  41.248  0.00  0.00     0.198 C 
HETATM   29  O   UNK N   1      41.259  34.712  40.840  0.00  0.00    -0.388 OA
HETATM   30  C   UNK N   1      40.261  35.321  41.639  0.00  0.00     0.198 C 
HETATM   31  C   UNK N   1      40.687  35.338  43.112  0.00  0.00     0.298 C 
ENDBRANCH  25  26
ENDBRANCH  24  25
ENDBRANCH  22  24
ENDBRANCH   4  18
BRANCH   1  32
HETATM   32  C   UNK N   1      39.739  38.630  49.903  0.00  0.00     0.272 C 
HETATM   33  O   UNK N   1      39.580  39.653  49.251  0.00  0.00    -0.266 OA
HETATM   34  N   UNK N   1      38.668  38.089  50.584  0.00  0.00    -0.343 N 
HETATM   35  C   UNK N   1      38.815  36.894  51.412  0.00  0.00     0.152 C 
HETATM   36  C   UNK N   1      37.314  38.459  50.162  0.00  0.00     0.152 C 
HETATM   37  C   UNK N   1      37.677  36.813  52.435  0.00  0.00     0.187 C 
HETATM   38  O   UNK N   1      36.428  36.882  51.776  0.00  0.00    -0.388 OA
HETATM   39  C   UNK N   1      36.277  38.188  51.257  0.00  0.00     0.187 C 
ENDBRANCH   1  32
TORSDOF 5
ENDMDL
MODEL 2
REMARK VINA RESULT:      -8.3      4.487      6.200
REMARK  5 active torsions:
REMARK  status: ('A' for Active; 'I' for Inactive)
REMARK    1  A    between atoms: C_2  and  C_3 
REMARK       I    between atoms: C_2  and  N_34 
REMARK    2  A    between atoms: N_6  and  C_7 
REMARK    3  A    between atoms: N_11  and  C_12 
REMARK    4  A    between atoms: C_12  and  C_13 
REMARK    5  A    between atoms: C_13  and  N_14 
ROOT
HETATM    1  C   UNK N   1      37.157  38.107  49.846  0.00  0.00     0.126 A 
HETATM    2  N   UNK N   1      36.713  36.881  50.181  0.00  0.00    -0.292 N 
ATOM      3  HN  UNK N   1      35.752  36.649  50.435  1.00  0.00     0.187 HD
HETATM    4  N   UNK N   1      37.721  36.022  50.128  0.00  0.00    -0.284 N 
HETATM    5  C   UNK N   1      38.839  36.673  49.709  0.00  0.00     0.072 A 
HETATM    6  C   UNK N   1      38.516  38.027  49.581  0.00  0.00     0.019 A 
HETATM    7  C   UNK N   1      39.462  39.158  49.271  0.00  0.00     0.189 C 
HETATM    8  S   UNK N   1      41.081  38.633  49.885  0.00  0.00     0.183 S 
HETATM    9  O   UNK N   1      41.199  38.877  51.398  0.00  0.00    -0.222 OA
HETATM   10  O   UNK N   1      42.204  39.508  49.307  0.00  0.00    -0.222 OA
HETATM   11  C   UNK N   1      41.343  36.913  49.526  0.00  0.00     0.110 A 
HETATM   12  C   UNK N   1      42.624  36.397  49.282  0.00  0.00     0.138 A 
HETATM   13  F   UNK N   1      43.720  37.186  49.401  0.00  0.00    -0.204 F 
HETATM   14  C   UNK N   1      42.773  35.066  48.891  0.00  0.00     0.044 A 
HETATM   15  C   UNK N   1      41.648  34.255  48.731  0.00  0.00     0.004 A 
HETATM   16  C   UNK N   1      40.373  34.757  49.001  0.00  0.00     0.015 A 
HETATM   17  C   UNK N   1      40.202  36.089  49.434  0.00  0.00     0.018 A 
ENDROOT
BRANCH   4  18
HETATM   18  C   UNK N   1      37.570  34.642  50.617  0.00  0.00     0.137 C 
HETATM   19  C   UNK N   1      37.325  34.655  52.150  0.00  0.00     0.031 C 
HETATM   20  C   UNK N   1      36.236  33.667  52.578  0.00  0.00     0.032 C 
HETATM   21  C   UNK N   1      36.393  32.325  51.857  0.00  0.00     0.272 C 
HETATM   22  N   UNK N   1      36.441  32.475  50.373  0.00  0.00     0.092 N 
HETATM   23  C   UNK N   1      36.470  33.871  49.872  0.00  0.00     0.299 C 
BRANCH  22  24
HETATM   24  C   UNK N   1      35.483  31.621  49.640  0.00  0.00     0.302 C 
BRANCH  24  25
HETATM   25  C   UNK N   1      36.212  30.702  48.644  0.00  0.00     0.302 C 
BRANCH  25  26
HETATM   26  N   UNK N   1      35.607  30.760  47.298  0.00  0.00     0.094 N 
HETATM   27  C   UNK N   1      35.648  32.126  46.747  0.00  0.00     0.298 C 
HETATM   28  C   UNK N   1      34.999  32.132  45.357  0.00  0.00     0.198 C 
HETATM   29  O   UNK N   1      33.654  31.700  45.436  0.00  0.00    -0.388 OA
HETATM   30  C   UNK N   1      33.612  30.367  45.912  0.00  0.00     0.198 C 
HETATM   31  C   UNK N   1      34.209  30.281  47.322  0.00  0.00     0.298 C 
ENDBRANCH  25  26
ENDBRANCH  24  25
ENDBRANCH  22  24
ENDBRANCH   4  18
BRANCH   1  32
HETATM   32  C   UNK N   1      36.273  39.303  49.684  0.00  0.00     0.272 C 
HETATM   33  O   UNK N   1      36.094  40.008  50.667  0.00  0.00    -0.266 OA
HETATM   34  N   UNK N   1      35.737  39.683  48.471  0.00  0.00    -0.343 N 
HETATM   35  C   UNK N   1      35.886  38.854  47.277  0.00  0.00     0.152 C 
HETATM   36  C   UNK N   1      35.376  41.091  48.279  0.00  0.00     0.152 C 
HETATM   37  C   UNK N   1      34.803  39.204  46.250  0.00  0.00     0.187 C 
HETATM   38  O   UNK N   1      34.829  40.589  45.971  0.00  0.00    -0.388 OA
HETATM   39  C   UNK N   1      34.387  41.278  47.124  0.00  0.00     0.187 C 
ENDBRANCH   1  32
TORSDOF 5
ENDMDL
MODEL 3
REMARK VINA RESULT:      -8.2      2.732      3.354
REMARK  5 active torsions:
REMARK  status: ('A' for Active; 'I' for Inactive)
REMARK    1  A    between atoms: C_2  and  C_3 
REMARK       I    between atoms: C_2  and  N_34 
REMARK    2  A    between atoms: N_6  and  C_7 
REMARK    3  A    between atoms: N_11  and  C_12 
REMARK    4  A    between atoms: C_12  and  C_13 
REMARK    5  A    between atoms: C_13  and  N_14 
ROOT
HETATM    1  C   UNK N   1      42.041  39.142  52.399  0.00  0.00     0.126 A 
HETATM    2  N   UNK N   1      41.623  38.130  51.615  0.00  0.00    -0.292 N 
ATOM      3  HN  UNK N   1      40.650  37.859  51.469  1.00  0.00     0.187 HD
HETATM    4  N   UNK N   1      42.674  37.543  51.063  0.00  0.00    -0.284 N 
HETATM    5  C   UNK N   1      43.803  38.199  51.445  0.00  0.00     0.072 A 
HETATM    6  C   UNK N   1      43.426  39.192  52.354  0.00  0.00     0.019 A 
HETATM    7  C   UNK N   1      44.342  40.086  53.148  0.00  0.00     0.189 C 
HETATM    8  S   UNK N   1      45.884  39.160  53.354  0.00  0.00     0.183 S 
HETATM    9  O   UNK N   1      45.770  38.157  54.513  0.00  0.00    -0.222 OA
HETATM   10  O   UNK N   1      47.026  40.081  53.808  0.00  0.00    -0.222 OA
HETATM   11  C   UNK N   1      46.290  38.307  51.850  0.00  0.00     0.110 A 
HETATM   12  C   UNK N   1      47.619  38.065  51.475  0.00  0.00     0.138 A 
HETATM   13  F   UNK N   1      48.641  38.402  52.300  0.00  0.00    -0.204 F 
HETATM   14  C   UNK N   1      47.897  37.494  50.233  0.00  0.00     0.044 A 
HETATM   15  C   UNK N   1      46.854  37.178  49.361  0.00  0.00     0.004 A 
HETATM   16  C   UNK N   1      45.527  37.389  49.743  0.00  0.00     0.015 A 
HETATM   17  C   UNK N   1      45.222  37.930  51.010  0.00  0.00     0.018 A 
ENDROOT
BRANCH   4  18
HETATM   18  C   UNK N   1      42.532  36.292  50.298  0.00  0.00     0.137 C 
HETATM   19  C   UNK N   1      41.205  35.588  50.692  0.00  0.00     0.031 C 
HETATM   20  C   UNK N   1      40.460  35.025  49.478  0.00  0.00     0.032 C 
HETATM   21  C   UNK N   1      41.422  34.324  48.515  0.00  0.00     0.272 C 
HETATM   22  N   UNK N   1      42.556  35.201  48.099  0.00  0.00     0.092 N 
HETATM   23  C   UNK N   1      42.630  36.517  48.782  0.00  0.00     0.299 C 
BRANCH  22  24
HETATM   24  C   UNK N   1      42.748  35.302  46.637  0.00  0.00     0.302 C 
BRANCH  24  25
HETATM   25  C   UNK N   1      41.758  34.395  45.886  0.00  0.00     0.302 C 
BRANCH  25  26
HETATM   26  N   UNK N   1      42.451  33.452  44.985  0.00  0.00     0.094 N 
HETATM   27  C   UNK N   1      41.493  32.665  44.189  0.00  0.00     0.298 C 
HETATM   28  C   UNK N   1      42.264  31.696  43.282  0.00  0.00     0.198 C 
HETATM   29  O   UNK N   1      43.059  30.819  44.056  0.00  0.00    -0.388 OA
HETATM   30  C   UNK N   1      44.019  31.566  44.782  0.00  0.00     0.198 C 
HETATM   31  C   UNK N   1      43.327  32.536  45.746  0.00  0.00     0.298 C 
ENDBRANCH  25  26
ENDBRANCH  24  25
ENDBRANCH  22  24
ENDBRANCH   4  18
BRANCH   1  32
HETATM   32  C   UNK N   1      41.124  40.101  53.089  0.00  0.00     0.272 C 
HETATM   33  O   UNK N   1      40.745  41.075  52.454  0.00  0.00    -0.266 OA
HETATM   34  N   UNK N   1      40.627  39.886  54.359  0.00  0.00    -0.343 N 
HETATM   35  C   UNK N   1      41.081  38.763  55.175  0.00  0.00     0.152 C 
HETATM   36  C   UNK N   1      39.365  40.530  54.731  0.00  0.00     0.152 C 
HETATM   37  C   UNK N   1      40.803  39.038  56.658  0.00  0.00     0.187 C 
HETATM   38  O   UNK N   1      39.437  39.346  56.846  0.00  0.00    -0.388 OA
HETATM   39  C   UNK N   1      39.184  40.604  56.251  0.00  0.00     0.187 C 
ENDBRANCH   1  32
TORSDOF 5
ENDMDL
MODEL 4
REMARK VINA RESULT:      -8.1      3.420      7.816
REMARK  5 active torsions:
REMARK  status: ('A' for Active; 'I' for Inactive)
REMARK    1  A    between atoms: C_2  and  C_3 
REMARK       I    between atoms: C_2  and  N_34 
REMARK    2  A    between atoms: N_6  and  C_7 
REMARK    3  A    between atoms: N_11  and  C_12 
REMARK    4  A    between atoms: C_12  and  C_13 
REMARK    5  A    between atoms: C_13  and  N_14 
ROOT
HETATM    1  C   UNK N   1      40.302  35.417  49.084  0.00  0.00     0.126 A 
HETATM    2  N   UNK N   1      41.344  36.117  49.572  0.00  0.00    -0.292 N 
ATOM      3  HN  UNK N   1      41.298  36.787  50.339  1.00  0.00     0.187 HD
HETATM    4  N   UNK N   1      42.439  35.796  48.898  0.00  0.00    -0.284 N 
HETATM    5  C   UNK N   1      42.133  34.838  47.981  0.00  0.00     0.072 A 
HETATM    6  C   UNK N   1      40.753  34.623  48.040  0.00  0.00     0.019 A 
HETATM    7  C   UNK N   1      39.934  33.751  47.125  0.00  0.00     0.189 C 
HETATM    8  S   UNK N   1      40.825  33.708  45.550  0.00  0.00     0.183 S 
HETATM    9  O   UNK N   1      40.521  34.962  44.715  0.00  0.00    -0.222 OA
HETATM   10  O   UNK N   1      40.314  32.569  44.656  0.00  0.00    -0.222 OA
HETATM   11  C   UNK N   1      42.573  33.580  45.840  0.00  0.00     0.110 A 
HETATM   12  C   UNK N   1      43.421  32.915  44.945  0.00  0.00     0.138 A 
HETATM   13  F   UNK N   1      42.942  32.421  43.777  0.00  0.00    -0.204 F 
HETATM   14  C   UNK N   1      44.767  32.737  45.266  0.00  0.00     0.044 A 
HETATM   15  C   UNK N   1      45.263  33.209  46.482  0.00  0.00     0.004 A 
HETATM   16  C   UNK N   1      44.427  33.899  47.364  0.00  0.00     0.015 A 
HETATM   17  C   UNK N   1      43.072  34.123  47.042  0.00  0.00     0.018 A 
ENDROOT
BRANCH   4  18
HETATM   18  C   UNK N   1      43.696  36.537  49.093  0.00  0.00     0.137 C 
HETATM   19  C   UNK N   1      43.768  37.717  48.087  0.00  0.00     0.031 C 
HETATM   20  C   UNK N   1      44.291  39.004  48.731  0.00  0.00     0.032 C 
HETATM   21  C   UNK N   1      45.492  38.720  49.638  0.00  0.00     0.272 C 
HETATM   22  N   UNK N   1      45.201  37.676  50.664  0.00  0.00     0.092 N 
HETATM   23  C   UNK N   1      43.879  37.012  50.542  0.00  0.00     0.299 C 
BRANCH  22  24
HETATM   24  C   UNK N   1      45.517  38.075  52.051  0.00  0.00     0.302 C 
BRANCH  24  25
HETATM   25  C   UNK N   1      44.299  37.882  52.972  0.00  0.00     0.302 C 
BRANCH  25  26
HETATM   26  N   UNK N   1      43.671  39.170  53.330  0.00  0.00     0.094 N 
HETATM   27  C   UNK N   1      43.721  39.409  54.783  0.00  0.00     0.298 C 
HETATM   28  C   UNK N   1      43.047  40.751  55.099  0.00  0.00     0.198 C 
HETATM   29  O   UNK N   1      41.697  40.740  54.674  0.00  0.00    -0.388 OA
HETATM   30  C   UNK N   1      41.645  40.566  53.270  0.00  0.00     0.198 C 
HETATM   31  C   UNK N   1      42.267  39.222  52.871  0.00  0.00     0.298 C 
ENDBRANCH  25  26
ENDBRANCH  24  25
ENDBRANCH  22  24
ENDBRANCH   4  18
BRANCH   1  32
HETATM   32  C   UNK N   1      38.930  35.435  49.678  0.00  0.00     0.272 C 
HETATM   33  O   UNK N   1      38.443  34.361  50.004  0.00  0.00    -0.266 OA
HETATM   34  N   UNK N   1      38.242  36.600  49.950  0.00  0.00    -0.343 N 
HETATM   35  C   UNK N   1      38.760  37.904  49.542  0.00  0.00     0.152 C 
HETATM   36  C   UNK N   1      37.212  36.575  50.992  0.00  0.00     0.152 C 
HETATM   37  C   UNK N   1      37.623  38.931  49.479  0.00  0.00     0.187 C 
HETATM   38  O   UNK N   1      36.935  38.967  50.713  0.00  0.00    -0.388 OA
HETATM   39  C   UNK N   1      36.235  37.748  50.862  0.00  0.00     0.187 C 
ENDBRANCH   1  32
TORSDOF 5
ENDMDL
MODEL 5
REMARK VINA RESULT:      -7.8      3.557      4.901
REMARK  5 active torsions:
REMARK  status: ('A' for Active; 'I' for Inactive)
REMARK    1  A    between atoms: C_2  and  C_3 
REMARK       I    between atoms: C_2  and  N_34 
REMARK    2  A    between atoms: N_6  and  C_7 
REMARK    3  A    between atoms: N_11  and  C_12 
REMARK    4  A    between atoms: C_12  and  C_13 
REMARK    5  A    between atoms: C_13  and  N_14 
ROOT
HETATM    1  C   UNK N   1      37.895  34.361  49.021  0.00  0.00     0.126 A 
HETATM    2  N   UNK N   1      39.057  34.105  48.390  0.00  0.00    -0.292 N 
ATOM      3  HN  UNK N   1      39.229  33.319  47.764  1.00  0.00     0.187 HD
HETATM    4  N   UNK N   1      39.942  35.037  48.712  0.00  0.00    -0.284 N 
HETATM    5  C   UNK N   1      39.352  35.950  49.530  0.00  0.00     0.072 A 
HETATM    6  C   UNK N   1      38.054  35.503  49.792  0.00  0.00     0.019 A 
HETATM    7  C   UNK N   1      37.064  36.111  50.750  0.00  0.00     0.189 C 
HETATM    8  S   UNK N   1      38.048  36.936  52.025  0.00  0.00     0.183 S 
HETATM    9  O   UNK N   1      38.532  35.929  53.080  0.00  0.00    -0.222 OA
HETATM   10  O   UNK N   1      37.189  37.908  52.847  0.00  0.00    -0.222 OA
HETATM   11  C   UNK N   1      39.440  37.757  51.287  0.00  0.00     0.110 A 
HETATM   12  C   UNK N   1      39.979  38.930  51.833  0.00  0.00     0.138 A 
HETATM   13  F   UNK N   1      39.505  39.428  53.002  0.00  0.00    -0.204 F 
HETATM   14  C   UNK N   1      40.997  39.605  51.159  0.00  0.00     0.044 A 
HETATM   15  C   UNK N   1      41.467  39.121  49.938  0.00  0.00     0.004 A 
HETATM   16  C   UNK N   1      40.953  37.936  49.405  0.00  0.00     0.015 A 
HETATM   17  C   UNK N   1      39.950  37.217  50.088  0.00  0.00     0.018 A 
ENDROOT
BRANCH   4  18
HETATM   18  C   UNK N   1      41.355  34.915  48.313  0.00  0.00     0.137 C 
HETATM   19  C   UNK N   1      42.144  34.157  49.414  0.00  0.00     0.031 C 
HETATM   20  C   UNK N   1      43.121  33.131  48.831  0.00  0.00     0.032 C 
HETATM   21  C   UNK N   1      43.877  33.707  47.631  0.00  0.00     0.272 C 
HETATM   22  N   UNK N   1      42.962  34.244  46.582  0.00  0.00     0.092 N 
HETATM   23  C   UNK N   1      41.521  34.255  46.936  0.00  0.00     0.299 C 
BRANCH  22  24
HETATM   24  C   UNK N   1      43.215  33.723  45.222  0.00  0.00     0.302 C 
BRANCH  24  25
HETATM   25  C   UNK N   1      42.211  34.306  44.212  0.00  0.00     0.302 C 
BRANCH  25  26
HETATM   26  N   UNK N   1      41.659  33.264  43.322  0.00  0.00     0.094 N 
HETATM   27  C   UNK N   1      40.324  32.828  43.767  0.00  0.00     0.298 C 
HETATM   28  C   UNK N   1      39.805  31.741  42.817  0.00  0.00     0.198 C 
HETATM   29  O   UNK N   1      40.680  30.629  42.808  0.00  0.00    -0.388 OA
HETATM   30  C   UNK N   1      41.950  31.032  42.329  0.00  0.00     0.198 C 
HETATM   31  C   UNK N   1      42.560  32.095  43.250  0.00  0.00     0.298 C 
ENDBRANCH  25  26
ENDBRANCH  24  25
ENDBRANCH  22  24
ENDBRANCH   4  18
BRANCH   1  32
HETATM   32  C   UNK N   1      36.636  33.585  48.803  0.00  0.00     0.272 C 
HETATM   33  O   UNK N   1      36.027  33.780  47.760  0.00  0.00    -0.266 OA
HETATM   34  N   UNK N   1      36.192  32.610  49.674  0.00  0.00    -0.343 N 
HETATM   35  C   UNK N   1      36.858  32.367  50.951  0.00  0.00     0.152 C 
HETATM   36  C   UNK N   1      35.320  31.554  49.152  0.00  0.00     0.152 C 
HETATM   37  C   UNK N   1      35.908  31.653  51.919  0.00  0.00     0.187 C 
HETATM   38  O   UNK N   1      35.405  30.475  51.322  0.00  0.00    -0.388 OA
HETATM   39  C   UNK N   1      34.540  30.851  50.268  0.00  0.00     0.187 C 
ENDBRANCH   1  32
TORSDOF 5
ENDMDL
MODEL 6
REMARK VINA RESULT:      -7.7      5.170      7.673
REMARK  5 active torsions:
REMARK  status: ('A' for Active; 'I' for Inactive)
REMARK    1  A    between atoms: C_2  and  C_3 
REMARK       I    between atoms: C_2  and  N_34 
REMARK    2  A    between atoms: N_6  and  C_7 
REMARK    3  A    between atoms: N_11  and  C_12 
REMARK    4  A    between atoms: C_12  and  C_13 
REMARK    5  A    between atoms: C_13  and  N_14 
ROOT
HETATM    1  C   UNK N   1      38.113  40.721  56.282  0.00  0.00     0.126 A 
HETATM    2  N   UNK N   1      38.004  39.983  55.161  0.00  0.00    -0.292 N 
ATOM      3  HN  UNK N   1      37.130  39.754  54.687  1.00  0.00     0.187 HD
HETATM    4  N   UNK N   1      39.211  39.601  54.770  0.00  0.00    -0.284 N 
HETATM    5  C   UNK N   1      40.140  40.129  55.613  0.00  0.00     0.072 A 
HETATM    6  C   UNK N   1      39.454  40.801  56.629  0.00  0.00     0.019 A 
HETATM    7  C   UNK N   1      40.051  41.430  57.860  0.00  0.00     0.189 C 
HETATM    8  S   UNK N   1      41.569  40.506  58.204  0.00  0.00     0.183 S 
HETATM    9  O   UNK N   1      41.258  39.202  58.955  0.00  0.00    -0.222 OA
HETATM   10  O   UNK N   1      42.468  41.265  59.192  0.00  0.00    -0.222 OA
HETATM   11  C   UNK N   1      42.421  40.145  56.688  0.00  0.00     0.110 A 
HETATM   12  C   UNK N   1      43.818  40.045  56.634  0.00  0.00     0.138 A 
HETATM   13  F   UNK N   1      44.561  40.134  57.764  0.00  0.00    -0.204 F 
HETATM   14  C   UNK N   1      44.454  39.874  55.404  0.00  0.00     0.044 A 
HETATM   15  C   UNK N   1      43.702  39.818  54.230  0.00  0.00     0.004 A 
HETATM   16  C   UNK N   1      42.307  39.887  54.283  0.00  0.00     0.015 A 
HETATM   17  C   UNK N   1      41.642  40.022  55.520  0.00  0.00     0.018 A 
ENDROOT
BRANCH   4  18
HETATM   18  C   UNK N   1      39.385  38.634  53.674  0.00  0.00     0.137 C 
HETATM   19  C   UNK N   1      38.258  37.568  53.735  0.00  0.00     0.031 C 
HETATM   20  C   UNK N   1      37.690  37.237  52.352  0.00  0.00     0.032 C 
HETATM   21  C   UNK N   1      38.808  37.085  51.317  0.00  0.00     0.272 C 
HETATM   22  N   UNK N   1      39.708  38.275  51.266  0.00  0.00     0.092 N 
HETATM   23  C   UNK N   1      39.454  39.311  52.297  0.00  0.00     0.299 C 
BRANCH  22  24
HETATM   24  C   UNK N   1      39.897  38.842  49.916  0.00  0.00     0.302 C 
BRANCH  24  25
HETATM   25  C   UNK N   1      41.349  39.312  49.713  0.00  0.00     0.302 C 
BRANCH  25  26
HETATM   26  N   UNK N   1      42.320  38.240  50.011  0.00  0.00     0.094 N 
HETATM   27  C   UNK N   1      43.512  38.768  50.697  0.00  0.00     0.298 C 
HETATM   28  C   UNK N   1      44.489  37.617  50.972  0.00  0.00     0.198 C 
HETATM   29  O   UNK N   1      44.883  37.000  49.762  0.00  0.00    -0.388 OA
HETATM   30  C   UNK N   1      43.748  36.442  49.125  0.00  0.00     0.198 C 
HETATM   31  C   UNK N   1      42.733  37.538  48.778  0.00  0.00     0.298 C 
ENDBRANCH  25  26
ENDBRANCH  24  25
ENDBRANCH  22  24
ENDBRANCH   4  18
BRANCH   1  32
HETATM   32  C   UNK N   1      36.966  41.417  56.941  0.00  0.00     0.272 C 
HETATM   33  O   UNK N   1      36.187  40.731  57.589  0.00  0.00    -0.266 OA
HETATM   34  N   UNK N   1      36.807  42.788  56.923  0.00  0.00    -0.343 N 
HETATM   35  C   UNK N   1      37.684  43.647  56.132  0.00  0.00     0.152 C 
HETATM   36  C   UNK N   1      36.035  43.414  58.000  0.00  0.00     0.152 C 
HETATM   37  C   UNK N   1      37.005  44.995  55.863  0.00  0.00     0.187 C 
HETATM   38  O   UNK N   1      36.601  45.586  57.082  0.00  0.00    -0.388 OA
HETATM   39  C   UNK N   1      35.543  44.814  57.615  0.00  0.00     0.187 C 
ENDBRANCH   1  32
TORSDOF 5
ENDMDL
MODEL 7
REMARK VINA RESULT:      -7.7      5.470      8.232
REMARK  5 active torsions:
REMARK  status: ('A' for Active; 'I' for Inactive)
REMARK    1  A    between atoms: C_2  and  C_3 
REMARK       I    between atoms: C_2  and  N_34 
REMARK    2  A    between atoms: N_6  and  C_7 
REMARK    3  A    between atoms: N_11  and  C_12 
REMARK    4  A    between atoms: C_12  and  C_13 
REMARK    5  A    between atoms: C_13  and  N_14 
ROOT
HETATM    1  C   UNK N   1      38.091  41.175  57.133  0.00  0.00     0.126 A 
HETATM    2  N   UNK N   1      37.567  40.374  56.185  0.00  0.00    -0.292 N 
ATOM      3  HN  UNK N   1      36.572  40.222  56.025  1.00  0.00     0.187 HD
HETATM    4  N   UNK N   1      38.550  39.815  55.495  0.00  0.00    -0.284 N 
HETATM    5  C   UNK N   1      39.742  40.283  55.955  0.00  0.00     0.072 A 
HETATM    6  C   UNK N   1      39.474  41.111  57.049  0.00  0.00     0.019 A 
HETATM    7  C   UNK N   1      40.483  41.751  57.967  0.00  0.00     0.189 C 
HETATM    8  S   UNK N   1      41.935  40.673  57.939  0.00  0.00     0.183 S 
HETATM    9  O   UNK N   1      41.750  39.479  58.888  0.00  0.00    -0.222 OA
HETATM   10  O   UNK N   1      43.166  41.385  58.520  0.00  0.00    -0.222 OA
HETATM   11  C   UNK N   1      42.234  40.094  56.286  0.00  0.00     0.110 A 
HETATM   12  C   UNK N   1      43.529  39.814  55.826  0.00  0.00     0.138 A 
HETATM   13  F   UNK N   1      44.592  39.894  56.663  0.00  0.00    -0.204 F 
HETATM   14  C   UNK N   1      43.731  39.472  54.488  0.00  0.00     0.044 A 
HETATM   15  C   UNK N   1      42.648  39.422  53.609  0.00  0.00     0.004 A 
HETATM   16  C   UNK N   1      41.353  39.671  54.071  0.00  0.00     0.015 A 
HETATM   17  C   UNK N   1      41.122  39.981  55.427  0.00  0.00     0.018 A 
ENDROOT
BRANCH   4  18
HETATM   18  C   UNK N   1      38.280  38.753  54.511  0.00  0.00     0.137 C 
HETATM   19  C   UNK N   1      37.697  37.509  55.234  0.00  0.00     0.031 C 
HETATM   20  C   UNK N   1      36.530  36.880  54.467  0.00  0.00     0.032 C 
HETATM   21  C   UNK N   1      36.832  36.801  52.968  0.00  0.00     0.272 C 
HETATM   22  N   UNK N   1      37.214  38.123  52.390  0.00  0.00     0.092 N 
HETATM   23  C   UNK N   1      37.368  39.228  53.370  0.00  0.00     0.299 C 
BRANCH  22  24
HETATM   24  C   UNK N   1      36.437  38.518  51.197  0.00  0.00     0.302 C 
BRANCH  24  25
HETATM   25  C   UNK N   1      37.111  38.016  49.909  0.00  0.00     0.302 C 
BRANCH  25  26
HETATM   26  N   UNK N   1      38.584  38.007  50.026  0.00  0.00     0.094 N 
HETATM   27  C   UNK N   1      39.194  39.093  49.239  0.00  0.00     0.298 C 
HETATM   28  C   UNK N   1      40.720  39.030  49.387  0.00  0.00     0.198 C 
HETATM   29  O   UNK N   1      41.212  37.786  48.926  0.00  0.00    -0.388 OA
HETATM   30  C   UNK N   1      40.672  36.742  49.715  0.00  0.00     0.198 C 
HETATM   31  C   UNK N   1      39.144  36.710  49.591  0.00  0.00     0.298 C 
ENDBRANCH  25  26
ENDBRANCH  24  25
ENDBRANCH  22  24
ENDBRANCH   4  18
BRANCH   1  32
HETATM   32  C   UNK N   1      37.279  42.058  58.025  0.00  0.00     0.272 C 
HETATM   33  O   UNK N   1      36.860  41.574  59.067  0.00  0.00    -0.266 OA
HETATM   34  N   UNK N   1      37.066  43.397  57.767  0.00  0.00    -0.343 N 
HETATM   35  C   UNK N   1      37.509  44.013  56.519  0.00  0.00     0.152 C 
HETATM   36  C   UNK N   1      36.769  44.286  58.894  0.00  0.00     0.152 C 
HETATM   37  C   UNK N   1      36.721  45.301  56.253  0.00  0.00     0.187 C 
HETATM   38  O   UNK N   1      36.819  46.167  57.366  0.00  0.00    -0.388 OA
HETATM   39  C   UNK N   1      36.102  45.588  58.438  0.00  0.00     0.187 C 
ENDBRANCH   1  32
TORSDOF 5
ENDMDL
MODEL 8
REMARK VINA RESULT:      -7.6      3.761      8.143
REMARK  5 active torsions:
REMARK  status: ('A' for Active; 'I' for Inactive)
REMARK    1  A    between atoms: C_2  and  C_3 
REMARK       I    between atoms: C_2  and  N_34 
REMARK    2  A    between atoms: N_6  and  C_7 
REMARK    3  A    between atoms: N_11  and  C_12 
REMARK    4  A    between atoms: C_12  and  C_13 
REMARK    5  A    between atoms: C_13  and  N_14 
ROOT
HETATM    1  C   UNK N   1      39.603  35.479  49.284  0.00  0.00     0.126 A 
HETATM    2  N   UNK N   1      40.631  35.980  49.995  0.00  0.00    -0.292 N 
ATOM      3  HN  UNK N   1      40.552  36.671  50.741  1.00  0.00     0.187 HD
HETATM    4  N   UNK N   1      41.761  35.433  49.572  0.00  0.00    -0.284 N 
HETATM    5  C   UNK N   1      41.481  34.523  48.600  0.00  0.00     0.072 A 
HETATM    6  C   UNK N   1      40.106  34.580  48.355  0.00  0.00     0.019 A 
HETATM    7  C   UNK N   1      39.349  33.854  47.273  0.00  0.00     0.189 C 
HETATM    8  S   UNK N   1      40.533  33.590  45.930  0.00  0.00     0.183 S 
HETATM    9  O   UNK N   1      40.668  34.852  45.063  0.00  0.00    -0.222 OA
HETATM   10  O   UNK N   1      40.016  32.542  44.933  0.00  0.00    -0.222 OA
HETATM   11  C   UNK N   1      42.118  33.137  46.593  0.00  0.00     0.110 A 
HETATM   12  C   UNK N   1      42.994  32.293  45.896  0.00  0.00     0.138 A 
HETATM   13  F   UNK N   1      42.692  31.863  44.646  0.00  0.00    -0.204 F 
HETATM   14  C   UNK N   1      44.178  31.870  46.501  0.00  0.00     0.044 A 
HETATM   15  C   UNK N   1      44.481  32.276  47.802  0.00  0.00     0.004 A 
HETATM   16  C   UNK N   1      43.626  33.141  48.487  0.00  0.00     0.015 A 
HETATM   17  C   UNK N   1      42.442  33.611  47.880  0.00  0.00     0.018 A 
ENDROOT
BRANCH   4  18
HETATM   18  C   UNK N   1      43.067  35.924  50.045  0.00  0.00     0.137 C 
HETATM   19  C   UNK N   1      43.815  36.624  48.878  0.00  0.00     0.031 C 
HETATM   20  C   UNK N   1      44.499  37.922  49.317  0.00  0.00     0.032 C 
HETATM   21  C   UNK N   1      45.209  37.745  50.662  0.00  0.00     0.272 C 
HETATM   22  N   UNK N   1      44.301  37.222  51.725  0.00  0.00     0.092 N 
HETATM   23  C   UNK N   1      42.941  36.840  51.271  0.00  0.00     0.299 C 
BRANCH  22  24
HETATM   24  C   UNK N   1      44.289  38.020  52.968  0.00  0.00     0.302 C 
BRANCH  24  25
HETATM   25  C   UNK N   1      43.800  39.454  52.699  0.00  0.00     0.302 C 
BRANCH  25  26
HETATM   26  N   UNK N   1      43.031  39.995  53.838  0.00  0.00     0.094 N 
HETATM   27  C   UNK N   1      43.830  39.999  55.076  0.00  0.00     0.298 C 
HETATM   28  C   UNK N   1      42.981  40.558  56.225  0.00  0.00     0.198 C 
HETATM   29  O   UNK N   1      41.825  39.766  56.419  0.00  0.00    -0.388 OA
HETATM   30  C   UNK N   1      41.025  39.803  55.252  0.00  0.00     0.198 C 
HETATM   31  C   UNK N   1      41.790  39.221  54.057  0.00  0.00     0.298 C 
ENDBRANCH  25  26
ENDBRANCH  24  25
ENDBRANCH  22  24
ENDBRANCH   4  18
BRANCH   1  32
HETATM   32  C   UNK N   1      38.165  35.779  49.564  0.00  0.00     0.272 C 
HETATM   33  O   UNK N   1      37.691  36.786  49.056  0.00  0.00    -0.266 OA
HETATM   34  N   UNK N   1      37.346  34.934  50.285  0.00  0.00    -0.343 N 
HETATM   35  C   UNK N   1      37.872  33.743  50.947  0.00  0.00     0.152 C 
HETATM   36  C   UNK N   1      35.901  34.998  50.052  0.00  0.00     0.152 C 
HETATM   37  C   UNK N   1      36.926  33.296  52.067  0.00  0.00     0.187 C 
HETATM   38  O   UNK N   1      35.621  33.116  51.554  0.00  0.00    -0.388 OA
HETATM   39  C   UNK N   1      35.105  34.387  51.210  0.00  0.00     0.187 C 
ENDBRANCH   1  32
TORSDOF 5
ENDMDL
MODEL 9
REMARK VINA RESULT:      -7.6      5.757     10.452
REMARK  5 active torsions:
REMARK  status: ('A' for Active; 'I' for Inactive)
REMARK    1  A    between atoms: C_2  and  C_3 
REMARK       I    between atoms: C_2  and  N_34 
REMARK    2  A    between atoms: N_6  and  C_7 
REMARK    3  A    between atoms: N_11  and  C_12 
REMARK    4  A    between atoms: C_12  and  C_13 
REMARK    5  A    between atoms: C_13  and  N_14 
ROOT
HETATM    1  C   UNK N   1      41.023  33.808  45.114  0.00  0.00     0.126 A 
HETATM    2  N   UNK N   1      39.885  33.263  45.585  0.00  0.00    -0.292 N 
ATOM      3  HN  UNK N   1      39.696  33.041  46.562  1.00  0.00     0.187 HD
HETATM    4  N   UNK N   1      39.048  33.063  44.577  0.00  0.00    -0.284 N 
HETATM    5  C   UNK N   1      39.615  33.521  43.429  0.00  0.00     0.072 A 
HETATM    6  C   UNK N   1      40.910  33.948  43.739  0.00  0.00     0.019 A 
HETATM    7  C   UNK N   1      41.966  34.410  42.770  0.00  0.00     0.189 C 
HETATM    8  S   UNK N   1      41.601  33.581  41.203  0.00  0.00     0.183 S 
HETATM    9  O   UNK N   1      42.152  32.146  41.202  0.00  0.00    -0.222 OA
HETATM   10  O   UNK N   1      42.356  34.239  40.039  0.00  0.00    -0.222 OA
HETATM   11  C   UNK N   1      39.848  33.559  40.918  0.00  0.00     0.110 A 
HETATM   12  C   UNK N   1      39.311  33.594  39.623  0.00  0.00     0.138 A 
HETATM   13  F   UNK N   1      40.124  33.557  38.538  0.00  0.00    -0.204 F 
HETATM   14  C   UNK N   1      37.931  33.691  39.447  0.00  0.00     0.044 A 
HETATM   15  C   UNK N   1      37.089  33.766  40.557  0.00  0.00     0.004 A 
HETATM   16  C   UNK N   1      37.617  33.702  41.848  0.00  0.00     0.015 A 
HETATM   17  C   UNK N   1      39.007  33.565  42.049  0.00  0.00     0.018 A 
ENDROOT
BRANCH   4  18
HETATM   18  C   UNK N   1      37.795  32.313  44.767  0.00  0.00     0.137 C 
HETATM   19  C   UNK N   1      37.932  30.899  44.141  0.00  0.00     0.031 C 
HETATM   20  C   UNK N   1      37.335  29.805  45.031  0.00  0.00     0.032 C 
HETATM   21  C   UNK N   1      35.985  30.239  45.611  0.00  0.00     0.272 C 
HETATM   22  N   UNK N   1      36.064  31.544  46.331  0.00  0.00     0.092 N 
HETATM   23  C   UNK N   1      37.370  32.245  46.242  0.00  0.00     0.299 C 
BRANCH  22  24
HETATM   24  C   UNK N   1      35.518  31.521  47.703  0.00  0.00     0.302 C 
BRANCH  24  25
HETATM   25  C   UNK N   1      36.291  32.482  48.622  0.00  0.00     0.302 C 
BRANCH  25  26
HETATM   26  N   UNK N   1      35.948  32.279  50.044  0.00  0.00     0.094 N 
HETATM   27  C   UNK N   1      37.119  32.482  50.916  0.00  0.00     0.298 C 
HETATM   28  C   UNK N   1      36.710  32.248  52.376  0.00  0.00     0.198 C 
HETATM   29  O   UNK N   1      36.223  30.931  52.549  0.00  0.00    -0.388 OA
HETATM   30  C   UNK N   1      35.064  30.747  51.756  0.00  0.00     0.198 C 
HETATM   31  C   UNK N   1      35.397  30.926  50.270  0.00  0.00     0.298 C 
ENDBRANCH  25  26
ENDBRANCH  24  25
ENDBRANCH  22  24
ENDBRANCH   4  18
BRANCH   1  32
HETATM   32  C   UNK N   1      42.147  34.278  45.981  0.00  0.00     0.272 C 
HETATM   33  O   UNK N   1      41.940  35.250  46.695  0.00  0.00    -0.266 OA
HETATM   34  N   UNK N   1      43.355  33.617  46.072  0.00  0.00    -0.343 N 
HETATM   35  C   UNK N   1      43.668  32.478  45.212  0.00  0.00     0.152 C 
HETATM   36  C   UNK N   1      44.153  33.786  47.290  0.00  0.00     0.152 C 
HETATM   37  C   UNK N   1      45.185  32.274  45.132  0.00  0.00     0.187 C 
HETATM   38  O   UNK N   1      45.726  32.153  46.433  0.00  0.00    -0.388 OA
HETATM   39  C   UNK N   1      45.622  33.411  47.070  0.00  0.00     0.187 C 
ENDBRANCH   1  32
TORSDOF 5
ENDMDL
