MODEL 1
REMARK VINA RESULT:      -8.7      0.000      0.000
REMARK  5 active torsions:
REMARK  status: ('A' for Active; 'I' for Inactive)
REMARK    1  A    between atoms: C_2  and  C_3 
REMARK       I    between atoms: C_2  and  N_34 
REMARK    2  A    between atoms: N_6  and  C_7 
REMARK    3  A    between atoms: N_11  and  C_12 
REMARK    4  A    between atoms: C_12  and  C_13 
REMARK    5  A    between atoms: C_13  and  N_14 
ROOT
HETATM    1  C   UNK N   1      40.506  38.433  49.802  0.00  0.00     0.126 A 
HETATM    2  N   UNK N   1      41.056  37.413  49.115  0.00  0.00    -0.292 N 
ATOM      3  HN  UNK N   1      40.591  36.872  48.387  1.00  0.00     0.187 HD
HETATM    4  N   UNK N   1      42.302  37.223  49.534  0.00  0.00    -0.284 N 
HETATM    5  C   UNK N   1      42.595  38.145  50.495  0.00  0.00     0.072 A 
HETATM    6  C   UNK N   1      41.446  38.916  50.703  0.00  0.00     0.019 A 
HETATM    7  C   UNK N   1      41.239  39.975  51.756  0.00  0.00     0.189 C 
HETATM    8  S   UNK N   1      42.306  39.536  53.134  0.00  0.00     0.183 S 
HETATM    9  O   UNK N   1      41.626  38.482  54.019  0.00  0.00    -0.222 OA
HETATM   10  O   UNK N   1      42.485  40.723  54.091  0.00  0.00    -0.222 OA
HETATM   11  C   UNK N   1      43.861  38.918  52.543  0.00  0.00     0.110 A 
HETATM   12  C   UNK N   1      45.033  39.065  53.298  0.00  0.00     0.138 A 
HETATM   13  F   UNK N   1      44.996  39.640  54.527  0.00  0.00    -0.204 F 
HETATM   14  C   UNK N   1      46.251  38.628  52.780  0.00  0.00     0.044 A 
HETATM   15  C   UNK N   1      46.305  38.062  51.508  0.00  0.00     0.004 A 
HETATM   16  C   UNK N   1      45.138  37.899  50.756  0.00  0.00     0.015 A 
HETATM   17  C   UNK N   1      43.887  38.302  51.272  0.00  0.00     0.018 A 
ENDROOT
BRANCH   4  18
HETATM   18  C   UNK N   1      43.085  36.052  49.094  0.00  0.00     0.137 C 
HETATM   19  C   UNK N   1      42.713  34.794  49.937  0.00  0.00     0.031 C 
HETATM   20  C   UNK N   1      41.625  33.993  49.226  0.00  0.00     0.032 C 
HETATM   21  C   UNK N   1      42.201  33.470  47.885  0.00  0.00     0.272 C 
HETATM   22  N   UNK N   1      43.199  34.396  47.285  0.00  0.00     0.092 N 
HETATM   23  C   UNK N   1      42.877  35.801  47.577  0.00  0.00     0.299 C 
BRANCH  22  24
HETATM   24  C   UNK N   1      43.439  34.105  45.859  0.00  0.00     0.302 C 
BRANCH  24  25
HETATM   25  C   UNK N   1      42.110  33.887  45.117  0.00  0.00     0.303 C 
BRANCH  25  26
HETATM   26  N   UNK N   1      41.961  32.467  44.737  0.00  0.00     0.102 N 
HETATM   27  C   UNK N   1      41.151  32.268  43.525  0.00  0.00     0.353 A 
HETATM   28  C   UNK N   1      42.343  31.784  42.719  0.00  0.00     0.295 A 
HETATM   29  F   UNK N   1      42.238  30.468  42.302  0.00  0.00    -0.203 F 
HETATM   30  F   UNK N   1      42.720  32.677  41.731  0.00  0.00    -0.203 F 
HETATM   31  C   UNK N   1      43.130  31.960  44.004  0.00  0.00     0.353 A 
ENDBRANCH  25  26
ENDBRANCH  24  25
ENDBRANCH  22  24
ENDBRANCH   4  18
BRANCH   1  32
HETATM   32  C   UNK N   1      39.090  38.919  49.657  0.00  0.00     0.272 C 
HETATM   33  O   UNK N   1      38.866  39.753  48.790  0.00  0.00    -0.266 OA
HETATM   34  N   UNK N   1      38.051  38.513  50.470  0.00  0.00    -0.343 N 
HETATM   35  C   UNK N   1      36.757  39.195  50.313  0.00  0.00     0.152 C 
HETATM   36  C   UNK N   1      38.279  37.589  51.586  0.00  0.00     0.152 C 
HETATM   37  C   UNK N   1      35.668  38.692  51.263  0.00  0.00     0.187 C 
HETATM   38  O   UNK N   1      36.214  38.421  52.535  0.00  0.00    -0.388 OA
HETATM   39  C   UNK N   1      37.015  37.267  52.389  0.00  0.00     0.187 C 
ENDBRANCH   1  32
TORSDOF 5
ENDMDL
MODEL 2
REMARK VINA RESULT:      -8.7      1.859      2.150
REMARK  5 active torsions:
REMARK  status: ('A' for Active; 'I' for Inactive)
REMARK    1  A    between atoms: C_2  and  C_3 
REMARK       I    between atoms: C_2  and  N_34 
REMARK    2  A    between atoms: N_6  and  C_7 
REMARK    3  A    between atoms: N_11  and  C_12 
REMARK    4  A    between atoms: C_12  and  C_13 
REMARK    5  A    between atoms: C_13  and  N_14 
ROOT
HETATM    1  C   UNK N   1      40.411  38.502  49.798  0.00  0.00     0.126 A 
HETATM    2  N   UNK N   1      40.946  37.463  49.127  0.00  0.00    -0.292 N 
ATOM      3  HN  UNK N   1      40.474  36.922  48.403  1.00  0.00     0.187 HD
HETATM    4  N   UNK N   1      42.185  37.255  49.556  0.00  0.00    -0.284 N 
HETATM    5  C   UNK N   1      42.490  38.184  50.507  0.00  0.00     0.072 A 
HETATM    6  C   UNK N   1      41.355  38.979  50.697  0.00  0.00     0.019 A 
HETATM    7  C   UNK N   1      41.162  40.055  51.735  0.00  0.00     0.189 C 
HETATM    8  S   UNK N   1      42.213  39.615  53.125  0.00  0.00     0.183 S 
HETATM    9  O   UNK N   1      41.508  38.584  54.020  0.00  0.00    -0.222 OA
HETATM   10  O   UNK N   1      42.408  40.811  54.069  0.00  0.00    -0.222 OA
HETATM   11  C   UNK N   1      43.759  38.960  52.552  0.00  0.00     0.110 A 
HETATM   12  C   UNK N   1      44.929  39.095  53.312  0.00  0.00     0.138 A 
HETATM   13  F   UNK N   1      44.896  39.686  54.533  0.00  0.00    -0.204 F 
HETATM   14  C   UNK N   1      46.142  38.628  52.806  0.00  0.00     0.044 A 
HETATM   15  C   UNK N   1      46.192  38.045  51.542  0.00  0.00     0.004 A 
HETATM   16  C   UNK N   1      45.026  37.894  50.785  0.00  0.00     0.015 A 
HETATM   17  C   UNK N   1      43.780  38.327  51.289  0.00  0.00     0.018 A 
ENDROOT
BRANCH   4  18
HETATM   18  C   UNK N   1      42.948  36.063  49.136  0.00  0.00     0.137 C 
HETATM   19  C   UNK N   1      42.521  34.816  49.967  0.00  0.00     0.031 C 
HETATM   20  C   UNK N   1      41.431  34.044  49.227  0.00  0.00     0.032 C 
HETATM   21  C   UNK N   1      42.029  33.507  47.900  0.00  0.00     0.272 C 
HETATM   22  N   UNK N   1      43.067  34.406  47.328  0.00  0.00     0.092 N 
HETATM   23  C   UNK N   1      42.775  35.819  47.613  0.00  0.00     0.299 C 
BRANCH  22  24
HETATM   24  C   UNK N   1      43.337  34.110  45.909  0.00  0.00     0.302 C 
BRANCH  24  25
HETATM   25  C   UNK N   1      43.202  32.603  45.632  0.00  0.00     0.303 C 
BRANCH  25  26
HETATM   26  N   UNK N   1      44.536  31.971  45.571  0.00  0.00     0.102 N 
HETATM   27  C   UNK N   1      45.629  32.932  45.352  0.00  0.00     0.353 A 
HETATM   28  C   UNK N   1      46.199  32.712  46.741  0.00  0.00     0.295 A 
HETATM   29  F   UNK N   1      47.468  32.156  46.742  0.00  0.00    -0.203 F 
HETATM   30  F   UNK N   1      46.049  33.814  47.564  0.00  0.00    -0.203 F 
HETATM   31  C   UNK N   1      45.084  31.696  46.907  0.00  0.00     0.353 A 
ENDBRANCH  25  26
ENDBRANCH  24  25
ENDBRANCH  22  24
ENDBRANCH   4  18
BRANCH   1  32
HETATM   32  C   UNK N   1      39.005  39.012  49.638  0.00  0.00     0.272 C 
HETATM   33  O   UNK N   1      38.804  39.846  48.765  0.00  0.00    -0.266 OA
HETATM   34  N   UNK N   1      37.952  38.629  50.444  0.00  0.00    -0.343 N 
HETATM   35  C   UNK N   1      36.672  39.333  50.273  0.00  0.00     0.152 C 
HETATM   36  C   UNK N   1      38.154  37.706  51.567  0.00  0.00     0.152 C 
HETATM   37  C   UNK N   1      35.566  38.854  51.215  0.00  0.00     0.187 C 
HETATM   38  O   UNK N   1      36.096  38.579  52.494  0.00  0.00    -0.388 OA
HETATM   39  C   UNK N   1      36.877  37.411  52.360  0.00  0.00     0.187 C 
ENDBRANCH   1  32
TORSDOF 5
ENDMDL
MODEL 3
REMARK VINA RESULT:      -8.4      3.776      6.733
REMARK  5 active torsions:
REMARK  status: ('A' for Active; 'I' for Inactive)
REMARK    1  A    between atoms: C_2  and  C_3 
REMARK       I    between atoms: C_2  and  N_34 
REMARK    2  A    between atoms: N_6  and  C_7 
REMARK    3  A    between atoms: N_11  and  C_12 
REMARK    4  A    between atoms: C_12  and  C_13 
REMARK    5  A    between atoms: C_13  and  N_14 
ROOT
HETATM    1  C   UNK N   1      42.653  35.693  48.424  0.00  0.00     0.126 A 
HETATM    2  N   UNK N   1      41.501  36.091  48.997  0.00  0.00    -0.292 N 
ATOM      3  HN  UNK N   1      40.566  35.893  48.643  1.00  0.00     0.187 HD
HETATM    4  N   UNK N   1      41.774  36.781  50.099  0.00  0.00    -0.284 N 
HETATM    5  C   UNK N   1      43.126  36.821  50.276  0.00  0.00     0.072 A 
HETATM    6  C   UNK N   1      43.712  36.151  49.197  0.00  0.00     0.019 A 
HETATM    7  C   UNK N   1      45.183  36.043  48.883  0.00  0.00     0.189 C 
HETATM    8  S   UNK N   1      45.959  37.506  49.581  0.00  0.00     0.183 S 
HETATM    9  O   UNK N   1      45.812  38.697  48.622  0.00  0.00    -0.222 OA
HETATM   10  O   UNK N   1      47.482  37.329  49.676  0.00  0.00    -0.222 OA
HETATM   11  C   UNK N   1      45.237  37.903  51.152  0.00  0.00     0.110 A 
HETATM   12  C   UNK N   1      45.978  38.557  52.146  0.00  0.00     0.138 A 
HETATM   13  F   UNK N   1      47.255  38.951  51.909  0.00  0.00    -0.204 F 
HETATM   14  C   UNK N   1      45.405  38.797  53.394  0.00  0.00     0.044 A 
HETATM   15  C   UNK N   1      44.104  38.373  53.657  0.00  0.00     0.004 A 
HETATM   16  C   UNK N   1      43.354  37.733  52.665  0.00  0.00     0.015 A 
HETATM   17  C   UNK N   1      43.900  37.509  51.383  0.00  0.00     0.018 A 
ENDROOT
BRANCH   4  18
HETATM   18  C   UNK N   1      40.714  37.502  50.830  0.00  0.00     0.137 C 
HETATM   19  C   UNK N   1      40.538  38.943  50.262  0.00  0.00     0.031 C 
HETATM   20  C   UNK N   1      39.438  38.953  49.202  0.00  0.00     0.032 C 
HETATM   21  C   UNK N   1      38.097  38.582  49.887  0.00  0.00     0.272 C 
HETATM   22  N   UNK N   1      38.270  37.634  51.021  0.00  0.00     0.092 N 
HETATM   23  C   UNK N   1      39.385  36.704  50.782  0.00  0.00     0.299 C 
BRANCH  22  24
HETATM   24  C   UNK N   1      37.001  36.986  51.401  0.00  0.00     0.302 C 
BRANCH  24  25
HETATM   25  C   UNK N   1      37.249  35.549  51.889  0.00  0.00     0.303 C 
BRANCH  25  26
HETATM   26  N   UNK N   1      36.487  34.588  51.064  0.00  0.00     0.102 N 
HETATM   27  C   UNK N   1      36.389  34.981  49.650  0.00  0.00     0.353 A 
HETATM   28  C   UNK N   1      37.267  33.831  49.193  0.00  0.00     0.295 A 
HETATM   29  F   UNK N   1      36.613  32.918  48.382  0.00  0.00    -0.203 F 
HETATM   30  F   UNK N   1      38.497  34.250  48.718  0.00  0.00    -0.203 F 
HETATM   31  C   UNK N   1      37.303  33.435  50.657  0.00  0.00     0.353 A 
ENDBRANCH  25  26
ENDBRANCH  24  25
ENDBRANCH  22  24
ENDBRANCH   4  18
BRANCH   1  32
HETATM   32  C   UNK N   1      42.767  34.935  47.130  0.00  0.00     0.272 C 
HETATM   33  O   UNK N   1      42.239  35.426  46.140  0.00  0.00    -0.266 OA
HETATM   34  N   UNK N   1      43.389  33.708  47.009  0.00  0.00    -0.343 N 
HETATM   35  C   UNK N   1      43.280  33.014  45.717  0.00  0.00     0.152 C 
HETATM   36  C   UNK N   1      43.954  33.027  48.179  0.00  0.00     0.152 C 
HETATM   37  C   UNK N   1      43.985  31.657  45.677  0.00  0.00     0.187 C 
HETATM   38  O   UNK N   1      43.810  30.977  46.901  0.00  0.00    -0.388 OA
HETATM   39  C   UNK N   1      44.585  31.669  47.857  0.00  0.00     0.187 C 
ENDBRANCH   1  32
TORSDOF 5
ENDMDL
MODEL 4
REMARK VINA RESULT:      -8.2      4.475      5.796
REMARK  5 active torsions:
REMARK  status: ('A' for Active; 'I' for Inactive)
REMARK    1  A    between atoms: C_2  and  C_3 
REMARK       I    between atoms: C_2  and  N_34 
REMARK    2  A    between atoms: N_6  and  C_7 
REMARK    3  A    between atoms: N_11  and  C_12 
REMARK    4  A    between atoms: C_12  and  C_13 
REMARK    5  A    between atoms: C_13  and  N_14 
ROOT
HETATM    1  C   UNK N   1      39.736  38.357  51.939  0.00  0.00     0.126 A 
HETATM    2  N   UNK N   1      40.771  37.787  51.292  0.00  0.00    -0.292 N 
ATOM      3  HN  UNK N   1      40.703  37.243  50.433  1.00  0.00     0.187 HD
HETATM    4  N   UNK N   1      41.896  38.047  51.949  0.00  0.00    -0.284 N 
HETATM    5  C   UNK N   1      41.610  38.822  53.034  0.00  0.00     0.072 A 
HETATM    6  C   UNK N   1      40.224  39.011  53.063  0.00  0.00     0.019 A 
HETATM    7  C   UNK N   1      39.421  39.690  54.143  0.00  0.00     0.189 C 
HETATM    8  S   UNK N   1      40.346  39.484  55.669  0.00  0.00     0.183 S 
HETATM    9  O   UNK N   1      40.062  38.105  56.284  0.00  0.00    -0.222 OA
HETATM   10  O   UNK N   1      39.845  40.450  56.752  0.00  0.00    -0.222 OA
HETATM   11  C   UNK N   1      42.086  39.664  55.371  0.00  0.00     0.110 A 
HETATM   12  C   UNK N   1      42.948  40.137  56.370  0.00  0.00     0.138 A 
HETATM   13  F   UNK N   1      42.477  40.419  57.612  0.00  0.00    -0.204 F 
HETATM   14  C   UNK N   1      44.298  40.331  56.086  0.00  0.00     0.044 A 
HETATM   15  C   UNK N   1      44.786  40.071  54.807  0.00  0.00     0.004 A 
HETATM   16  C   UNK N   1      43.935  39.586  53.810  0.00  0.00     0.015 A 
HETATM   17  C   UNK N   1      42.571  39.348  54.081  0.00  0.00     0.018 A 
ENDROOT
BRANCH   4  18
HETATM   18  C   UNK N   1      43.166  37.392  51.578  0.00  0.00     0.137 C 
HETATM   19  C   UNK N   1      42.901  35.971  50.993  0.00  0.00     0.031 C 
HETATM   20  C   UNK N   1      42.807  36.043  49.471  0.00  0.00     0.032 C 
HETATM   21  C   UNK N   1      44.183  36.498  48.918  0.00  0.00     0.272 C 
HETATM   22  N   UNK N   1      44.898  37.423  49.838  0.00  0.00     0.092 N 
HETATM   23  C   UNK N   1      43.960  38.278  50.582  0.00  0.00     0.299 C 
BRANCH  22  24
HETATM   24  C   UNK N   1      45.985  38.152  49.158  0.00  0.00     0.302 C 
BRANCH  24  25
HETATM   25  C   UNK N   1      47.256  37.291  49.087  0.00  0.00     0.303 C 
BRANCH  25  26
HETATM   26  N   UNK N   1      48.324  37.882  49.921  0.00  0.00     0.102 N 
HETATM   27  C   UNK N   1      47.947  39.168  50.528  0.00  0.00     0.353 A 
HETATM   28  C   UNK N   1      47.936  38.587  51.930  0.00  0.00     0.295 A 
HETATM   29  F   UNK N   1      48.893  39.135  52.768  0.00  0.00    -0.203 F 
HETATM   30  F   UNK N   1      46.665  38.515  52.472  0.00  0.00    -0.203 F 
HETATM   31  C   UNK N   1      48.369  37.293  51.267  0.00  0.00     0.353 A 
ENDBRANCH  25  26
ENDBRANCH  24  25
ENDBRANCH  22  24
ENDBRANCH   4  18
BRANCH   1  32
HETATM   32  C   UNK N   1      38.290  38.244  51.541  0.00  0.00     0.272 C 
HETATM   33  O   UNK N   1      37.838  39.113  50.807  0.00  0.00    -0.266 OA
HETATM   34  N   UNK N   1      37.444  37.249  51.989  0.00  0.00    -0.343 N 
HETATM   35  C   UNK N   1      36.019  37.362  51.644  0.00  0.00     0.152 C 
HETATM   36  C   UNK N   1      37.905  36.237  52.945  0.00  0.00     0.152 C 
HETATM   37  C   UNK N   1      35.153  36.226  52.193  0.00  0.00     0.187 C 
HETATM   38  O   UNK N   1      35.576  35.871  53.492  0.00  0.00    -0.388 OA
HETATM   39  C   UNK N   1      36.824  35.227  53.344  0.00  0.00     0.187 C 
ENDBRANCH   1  32
TORSDOF 5
ENDMDL
MODEL 5
REMARK VINA RESULT:      -8.0      4.774      8.154
REMARK  5 active torsions:
REMARK  status: ('A' for Active; 'I' for Inactive)
REMARK    1  A    between atoms: C_2  and  C_3 
REMARK       I    between atoms: C_2  and  N_34 
REMARK    2  A    between atoms: N_6  and  C_7 
REMARK    3  A    between atoms: N_11  and  C_12 
REMARK    4  A    between atoms: C_12  and  C_13 
REMARK    5  A    between atoms: C_13  and  N_14 
ROOT
HETATM    1  C   UNK N   1      40.755  34.693  48.023  0.00  0.00     0.126 A 
HETATM    2  N   UNK N   1      39.557  34.095  48.169  0.00  0.00    -0.292 N 
ATOM      3  HN  UNK N   1      39.203  33.334  47.590  1.00  0.00     0.187 HD
HETATM    4  N   UNK N   1      38.909  34.652  49.185  0.00  0.00    -0.284 N 
HETATM    5  C   UNK N   1      39.696  35.618  49.741  0.00  0.00     0.072 A 
HETATM    6  C   UNK N   1      40.877  35.679  48.992  0.00  0.00     0.019 A 
HETATM    7  C   UNK N   1      41.997  36.678  49.141  0.00  0.00     0.189 C 
HETATM    8  S   UNK N   1      41.258  38.174  49.808  0.00  0.00     0.183 S 
HETATM    9  O   UNK N   1      40.628  39.005  48.680  0.00  0.00    -0.222 OA
HETATM   10  O   UNK N   1      42.333  39.117  50.367  0.00  0.00    -0.222 OA
HETATM   11  C   UNK N   1      40.028  37.773  51.022  0.00  0.00     0.110 A 
HETATM   12  C   UNK N   1      39.740  38.648  52.079  0.00  0.00     0.138 A 
HETATM   13  F   UNK N   1      40.361  39.851  52.168  0.00  0.00    -0.204 F 
HETATM   14  C   UNK N   1      38.816  38.276  53.054  0.00  0.00     0.044 A 
HETATM   15  C   UNK N   1      38.193  37.031  52.986  0.00  0.00     0.004 A 
HETATM   16  C   UNK N   1      38.465  36.160  51.927  0.00  0.00     0.015 A 
HETATM   17  C   UNK N   1      39.371  36.527  50.909  0.00  0.00     0.018 A 
ENDROOT
BRANCH   4  18
HETATM   18  C   UNK N   1      37.495  34.329  49.459  0.00  0.00     0.137 C 
HETATM   19  C   UNK N   1      36.707  34.140  48.127  0.00  0.00     0.031 C 
HETATM   20  C   UNK N   1      36.688  32.663  47.739  0.00  0.00     0.032 C 
HETATM   21  C   UNK N   1      35.907  31.882  48.828  0.00  0.00     0.272 C 
HETATM   22  N   UNK N   1      36.063  32.472  50.185  0.00  0.00     0.092 N 
HETATM   23  C   UNK N   1      37.393  33.073  50.364  0.00  0.00     0.299 C 
BRANCH  22  24
HETATM   24  C   UNK N   1      35.667  31.530  51.249  0.00  0.00     0.302 C 
BRANCH  24  25
HETATM   25  C   UNK N   1      35.576  32.248  52.605  0.00  0.00     0.303 C 
BRANCH  25  26
HETATM   26  N   UNK N   1      36.230  31.442  53.657  0.00  0.00     0.102 N 
HETATM   27  C   UNK N   1      37.699  31.513  53.620  0.00  0.00     0.353 A 
HETATM   28  C   UNK N   1      37.769  32.273  54.932  0.00  0.00     0.295 A 
HETATM   29  F   UNK N   1      38.409  31.579  55.945  0.00  0.00    -0.203 F 
HETATM   30  F   UNK N   1      38.188  33.582  54.772  0.00  0.00    -0.203 F 
HETATM   31  C   UNK N   1      36.258  32.136  54.953  0.00  0.00     0.353 A 
ENDBRANCH  25  26
ENDBRANCH  24  25
ENDBRANCH  22  24
ENDBRANCH   4  18
BRANCH   1  32
HETATM   32  C   UNK N   1      41.759  34.383  46.947  0.00  0.00     0.272 C 
HETATM   33  O   UNK N   1      41.577  34.881  45.844  0.00  0.00    -0.266 OA
HETATM   34  N   UNK N   1      42.839  33.540  47.123  0.00  0.00    -0.343 N 
HETATM   35  C   UNK N   1      43.641  33.206  45.936  0.00  0.00     0.152 C 
HETATM   36  C   UNK N   1      43.054  32.840  48.394  0.00  0.00     0.152 C 
HETATM   37  C   UNK N   1      44.807  32.256  46.220  0.00  0.00     0.187 C 
HETATM   38  O   UNK N   1      44.423  31.273  47.157  0.00  0.00    -0.388 OA
HETATM   39  C   UNK N   1      44.289  31.934  48.397  0.00  0.00     0.187 C 
ENDBRANCH   1  32
TORSDOF 5
ENDMDL
MODEL 6
REMARK VINA RESULT:      -8.0      4.604      7.564
REMARK  5 active torsions:
REMARK  status: ('A' for Active; 'I' for Inactive)
REMARK    1  A    between atoms: C_2  and  C_3 
REMARK       I    between atoms: C_2  and  N_34 
REMARK    2  A    between atoms: N_6  and  C_7 
REMARK    3  A    between atoms: N_11  and  C_12 
REMARK    4  A    between atoms: C_12  and  C_13 
REMARK    5  A    between atoms: C_13  and  N_14 
ROOT
HETATM    1  C   UNK N   1      39.054  38.830  53.356  0.00  0.00     0.126 A 
HETATM    2  N   UNK N   1      39.978  38.716  52.382  0.00  0.00    -0.292 N 
ATOM      3  HN  UNK N   1      40.814  39.292  52.291  1.00  0.00     0.187 HD
HETATM    4  N   UNK N   1      39.627  37.736  51.556  0.00  0.00    -0.284 N 
HETATM    5  C   UNK N   1      38.468  37.172  52.001  0.00  0.00     0.072 A 
HETATM    6  C   UNK N   1      38.068  37.876  53.142  0.00  0.00     0.019 A 
HETATM    7  C   UNK N   1      36.783  37.706  53.912  0.00  0.00     0.189 C 
HETATM    8  S   UNK N   1      35.564  37.099  52.739  0.00  0.00     0.183 S 
HETATM    9  O   UNK N   1      34.965  38.266  51.940  0.00  0.00    -0.222 OA
HETATM   10  O   UNK N   1      34.342  36.519  53.465  0.00  0.00    -0.222 OA
HETATM   11  C   UNK N   1      36.300  35.924  51.631  0.00  0.00     0.110 A 
HETATM   12  C   UNK N   1      35.539  34.897  51.055  0.00  0.00     0.138 A 
HETATM   13  F   UNK N   1      34.206  34.809  51.290  0.00  0.00    -0.204 F 
HETATM   14  C   UNK N   1      36.158  33.949  50.241  0.00  0.00     0.044 A 
HETATM   15  C   UNK N   1      37.532  34.015  50.014  0.00  0.00     0.004 A 
HETATM   16  C   UNK N   1      38.293  35.044  50.574  0.00  0.00     0.015 A 
HETATM   17  C   UNK N   1      37.685  36.036  51.374  0.00  0.00     0.018 A 
ENDROOT
BRANCH   4  18
HETATM   18  C   UNK N   1      40.350  37.510  50.290  0.00  0.00     0.137 C 
HETATM   19  C   UNK N   1      40.157  38.717  49.323  0.00  0.00     0.031 C 
HETATM   20  C   UNK N   1      41.308  39.707  49.488  0.00  0.00     0.032 C 
HETATM   21  C   UNK N   1      42.622  39.003  49.058  0.00  0.00     0.272 C 
HETATM   22  N   UNK N   1      42.617  37.544  49.348  0.00  0.00     0.092 N 
HETATM   23  C   UNK N   1      41.852  37.237  50.567  0.00  0.00     0.299 C 
BRANCH  22  24
HETATM   24  C   UNK N   1      43.974  36.967  49.314  0.00  0.00     0.302 C 
BRANCH  24  25
HETATM   25  C   UNK N   1      44.683  37.163  50.663  0.00  0.00     0.303 C 
BRANCH  25  26
HETATM   26  N   UNK N   1      45.710  38.220  50.555  0.00  0.00     0.102 N 
HETATM   27  C   UNK N   1      46.777  38.103  51.561  0.00  0.00     0.353 A 
HETATM   28  C   UNK N   1      47.823  37.751  50.519  0.00  0.00     0.295 A 
HETATM   29  F   UNK N   1      48.834  38.691  50.403  0.00  0.00    -0.203 F 
HETATM   30  F   UNK N   1      48.258  36.441  50.616  0.00  0.00    -0.203 F 
HETATM   31  C   UNK N   1      46.703  37.927  49.511  0.00  0.00     0.353 A 
ENDBRANCH  25  26
ENDBRANCH  24  25
ENDBRANCH  22  24
ENDBRANCH   4  18
BRANCH   1  32
HETATM   32  C   UNK N   1      39.064  39.860  54.452  0.00  0.00     0.272 C 
HETATM   33  O   UNK N   1      38.843  41.022  54.135  0.00  0.00    -0.266 OA
HETATM   34  N   UNK N   1      39.351  39.576  55.772  0.00  0.00    -0.343 N 
HETATM   35  C   UNK N   1      39.482  40.710  56.699  0.00  0.00     0.152 C 
HETATM   36  C   UNK N   1      39.718  38.219  56.192  0.00  0.00     0.152 C 
HETATM   37  C   UNK N   1      39.814  40.305  58.137  0.00  0.00     0.187 C 
HETATM   38  O   UNK N   1      40.729  39.231  58.145  0.00  0.00    -0.388 OA
HETATM   39  C   UNK N   1      40.020  38.098  57.689  0.00  0.00     0.187 C 
ENDBRANCH   1  32
TORSDOF 5
ENDMDL
MODEL 7
REMARK VINA RESULT:      -8.0      3.548      8.293
REMARK  5 active torsions:
REMARK  status: ('A' for Active; 'I' for Inactive)
REMARK    1  A    between atoms: C_2  and  C_3 
REMARK       I    between atoms: C_2  and  N_34 
REMARK    2  A    between atoms: N_6  and  C_7 
REMARK    3  A    between atoms: N_11  and  C_12 
REMARK    4  A    between atoms: C_12  and  C_13 
REMARK    5  A    between atoms: C_13  and  N_14 
ROOT
HETATM    1  C   UNK N   1      39.687  35.230  49.157  0.00  0.00     0.126 A 
HETATM    2  N   UNK N   1      40.728  35.766  49.822  0.00  0.00    -0.292 N 
ATOM      3  HN  UNK N   1      40.658  36.420  50.602  1.00  0.00     0.187 HD
HETATM    4  N   UNK N   1      41.863  35.309  49.304  0.00  0.00    -0.284 N 
HETATM    5  C   UNK N   1      41.573  34.437  48.296  0.00  0.00     0.072 A 
HETATM    6  C   UNK N   1      40.181  34.391  48.167  0.00  0.00     0.019 A 
HETATM    7  C   UNK N   1      39.389  33.667  47.107  0.00  0.00     0.189 C 
HETATM    8  S   UNK N   1      40.445  33.580  45.655  0.00  0.00     0.183 S 
HETATM    9  O   UNK N   1      40.368  34.892  44.860  0.00  0.00    -0.222 OA
HETATM   10  O   UNK N   1      39.920  32.541  44.654  0.00  0.00    -0.222 OA
HETATM   11  C   UNK N   1      42.125  33.259  46.128  0.00  0.00     0.110 A 
HETATM   12  C   UNK N   1      43.001  32.576  45.272  0.00  0.00     0.138 A 
HETATM   13  F   UNK N   1      42.597  32.189  44.036  0.00  0.00    -0.204 F 
HETATM   14  C   UNK N   1      44.295  32.280  45.697  0.00  0.00     0.044 A 
HETATM   15  C   UNK N   1      44.711  32.648  46.975  0.00  0.00     0.004 A 
HETATM   16  C   UNK N   1      43.848  33.342  47.828  0.00  0.00     0.015 A 
HETATM   17  C   UNK N   1      42.544  33.684  47.409  0.00  0.00     0.018 A 
ENDROOT
BRANCH   4  18
HETATM   18  C   UNK N   1      43.167  35.870  49.707  0.00  0.00     0.137 C 
HETATM   19  C   UNK N   1      43.636  36.955  48.691  0.00  0.00     0.031 C 
HETATM   20  C   UNK N   1      43.199  38.339  49.166  0.00  0.00     0.032 C 
HETATM   21  C   UNK N   1      43.922  38.646  50.504  0.00  0.00     0.272 C 
HETATM   22  N   UNK N   1      44.163  37.428  51.323  0.00  0.00     0.092 N 
HETATM   23  C   UNK N   1      43.088  36.438  51.149  0.00  0.00     0.299 C 
BRANCH  22  24
HETATM   24  C   UNK N   1      44.473  37.756  52.727  0.00  0.00     0.302 C 
BRANCH  24  25
HETATM   25  C   UNK N   1      44.334  39.266  52.977  0.00  0.00     0.303 C 
BRANCH  25  26
HETATM   26  N   UNK N   1      43.504  39.515  54.174  0.00  0.00     0.102 N 
HETATM   27  C   UNK N   1      42.974  40.885  54.243  0.00  0.00     0.353 A 
HETATM   28  C   UNK N   1      41.544  40.422  54.028  0.00  0.00     0.295 A 
HETATM   29  F   UNK N   1      40.710  40.667  55.106  0.00  0.00    -0.203 F 
HETATM   30  F   UNK N   1      41.034  40.807  52.801  0.00  0.00    -0.203 F 
HETATM   31  C   UNK N   1      42.129  39.022  54.010  0.00  0.00     0.353 A 
ENDBRANCH  25  26
ENDBRANCH  24  25
ENDBRANCH  22  24
ENDBRANCH   4  18
BRANCH   1  32
HETATM   32  C   UNK N   1      38.238  35.542  49.408  0.00  0.00     0.272 C 
HETATM   33  O   UNK N   1      37.818  36.625  49.021  0.00  0.00    -0.266 OA
HETATM   34  N   UNK N   1      37.376  34.701  50.084  0.00  0.00    -0.343 N 
HETATM   35  C   UNK N   1      36.031  35.211  50.395  0.00  0.00     0.152 C 
HETATM   36  C   UNK N   1      37.846  33.434  50.655  0.00  0.00     0.152 C 
HETATM   37  C   UNK N   1      35.149  34.220  51.157  0.00  0.00     0.187 C 
HETATM   38  O   UNK N   1      35.915  33.516  52.111  0.00  0.00    -0.388 OA
HETATM   39  C   UNK N   1      36.755  32.645  51.385  0.00  0.00     0.187 C 
ENDBRANCH   1  32
TORSDOF 5
ENDMDL
MODEL 8
REMARK VINA RESULT:      -7.9      4.229      5.634
REMARK  5 active torsions:
REMARK  status: ('A' for Active; 'I' for Inactive)
REMARK    1  A    between atoms: C_2  and  C_3 
REMARK       I    between atoms: C_2  and  N_34 
REMARK    2  A    between atoms: N_6  and  C_7 
REMARK    3  A    between atoms: N_11  and  C_12 
REMARK    4  A    between atoms: C_12  and  C_13 
REMARK    5  A    between atoms: C_13  and  N_14 
ROOT
HETATM    1  C   UNK N   1      37.341  37.765  49.600  0.00  0.00     0.126 A 
HETATM    2  N   UNK N   1      36.885  36.506  49.747  0.00  0.00    -0.292 N 
ATOM      3  HN  UNK N   1      35.906  36.242  49.860  1.00  0.00     0.187 HD
HETATM    4  N   UNK N   1      37.909  35.661  49.722  0.00  0.00    -0.284 N 
HETATM    5  C   UNK N   1      39.062  36.365  49.530  0.00  0.00     0.072 A 
HETATM    6  C   UNK N   1      38.723  37.721  49.476  0.00  0.00     0.019 A 
HETATM    7  C   UNK N   1      39.669  38.893  49.405  0.00  0.00     0.189 C 
HETATM    8  S   UNK N   1      41.194  38.363  50.195  0.00  0.00     0.183 S 
HETATM    9  O   UNK N   1      41.082  38.508  51.720  0.00  0.00    -0.222 OA
HETATM   10  O   UNK N   1      42.352  39.309  49.846  0.00  0.00    -0.222 OA
HETATM   11  C   UNK N   1      41.560  36.679  49.773  0.00  0.00     0.110 A 
HETATM   12  C   UNK N   1      42.881  36.214  49.728  0.00  0.00     0.138 A 
HETATM   13  F   UNK N   1      43.913  37.030  50.059  0.00  0.00    -0.204 F 
HETATM   14  C   UNK N   1      43.142  34.904  49.329  0.00  0.00     0.044 A 
HETATM   15  C   UNK N   1      42.092  34.065  48.961  0.00  0.00     0.004 A 
HETATM   16  C   UNK N   1      40.770  34.518  49.017  0.00  0.00     0.015 A 
HETATM   17  C   UNK N   1      40.477  35.829  49.451  0.00  0.00     0.018 A 
ENDROOT
BRANCH   4  18
HETATM   18  C   UNK N   1      37.730  34.234  50.050  0.00  0.00     0.137 C 
HETATM   19  C   UNK N   1      37.307  34.061  51.541  0.00  0.00     0.031 C 
HETATM   20  C   UNK N   1      35.785  33.997  51.646  0.00  0.00     0.032 C 
HETATM   21  C   UNK N   1      35.297  32.728  50.899  0.00  0.00     0.272 C 
HETATM   22  N   UNK N   1      36.152  32.380  49.732  0.00  0.00     0.092 N 
HETATM   23  C   UNK N   1      36.702  33.583  49.087  0.00  0.00     0.299 C 
BRANCH  22  24
HETATM   24  C   UNK N   1      35.480  31.444  48.812  0.00  0.00     0.302 C 
BRANCH  24  25
HETATM   25  C   UNK N   1      36.486  30.843  47.817  0.00  0.00     0.303 C 
BRANCH  25  26
HETATM   26  N   UNK N   1      35.885  30.751  46.470  0.00  0.00     0.102 N 
HETATM   27  C   UNK N   1      34.773  31.692  46.261  0.00  0.00     0.353 A 
HETATM   28  C   UNK N   1      35.558  32.509  45.250  0.00  0.00     0.295 A 
HETATM   29  F   UNK N   1      35.015  32.490  43.976  0.00  0.00    -0.203 F 
HETATM   30  F   UNK N   1      35.892  33.767  45.719  0.00  0.00    -0.203 F 
HETATM   31  C   UNK N   1      36.661  31.488  45.462  0.00  0.00     0.353 A 
ENDBRANCH  25  26
ENDBRANCH  24  25
ENDBRANCH  22  24
ENDBRANCH   4  18
BRANCH   1  32
HETATM   32  C   UNK N   1      36.496  39.008  49.632  0.00  0.00     0.272 C 
HETATM   33  O   UNK N   1      36.335  39.554  50.716  0.00  0.00    -0.266 OA
HETATM   34  N   UNK N   1      35.861  39.535  48.525  0.00  0.00    -0.343 N 
HETATM   35  C   UNK N   1      34.939  40.661  48.740  0.00  0.00     0.152 C 
HETATM   36  C   UNK N   1      35.939  38.870  47.219  0.00  0.00     0.152 C 
HETATM   37  C   UNK N   1      34.270  41.172  47.462  0.00  0.00     0.187 C 
HETATM   38  O   UNK N   1      33.939  40.092  46.616  0.00  0.00    -0.388 OA
HETATM   39  C   UNK N   1      35.158  39.588  46.114  0.00  0.00     0.187 C 
ENDBRANCH   1  32
TORSDOF 5
ENDMDL
MODEL 9
REMARK VINA RESULT:      -7.9      3.708      7.711
REMARK  5 active torsions:
REMARK  status: ('A' for Active; 'I' for Inactive)
REMARK    1  A    between atoms: C_2  and  C_3 
REMARK       I    between atoms: C_2  and  N_34 
REMARK    2  A    between atoms: N_6  and  C_7 
REMARK    3  A    between atoms: N_11  and  C_12 
REMARK    4  A    between atoms: C_12  and  C_13 
REMARK    5  A    between atoms: C_13  and  N_14 
ROOT
HETATM    1  C   UNK N   1      39.387  35.220  48.974  0.00  0.00     0.126 A 
HETATM    2  N   UNK N   1      40.386  35.911  49.556  0.00  0.00    -0.292 N 
ATOM      3  HN  UNK N   1      40.275  36.583  50.314  1.00  0.00     0.187 HD
HETATM    4  N   UNK N   1      41.539  35.580  48.987  0.00  0.00    -0.284 N 
HETATM    5  C   UNK N   1      41.309  34.635  48.030  0.00  0.00     0.072 A 
HETATM    6  C   UNK N   1      39.929  34.408  47.986  0.00  0.00     0.019 A 
HETATM    7  C   UNK N   1      39.180  33.546  47.002  0.00  0.00     0.189 C 
HETATM    8  S   UNK N   1      40.157  33.531  45.493  0.00  0.00     0.183 S 
HETATM    9  O   UNK N   1      39.868  34.787  44.658  0.00  0.00    -0.222 OA
HETATM   10  O   UNK N   1      39.716  32.392  44.563  0.00  0.00    -0.222 OA
HETATM   11  C   UNK N   1      41.888  33.445  45.875  0.00  0.00     0.110 A 
HETATM   12  C   UNK N   1      42.795  32.842  44.993  0.00  0.00     0.138 A 
HETATM   13  F   UNK N   1      42.377  32.354  43.798  0.00  0.00    -0.204 F 
HETATM   14  C   UNK N   1      44.138  32.730  45.350  0.00  0.00     0.044 A 
HETATM   15  C   UNK N   1      44.573  33.202  46.586  0.00  0.00     0.004 A 
HETATM   16  C   UNK N   1      43.677  33.818  47.464  0.00  0.00     0.015 A 
HETATM   17  C   UNK N   1      42.318  33.974  47.113  0.00  0.00     0.018 A 
ENDROOT
BRANCH   4  18
HETATM   18  C   UNK N   1      42.780  36.318  49.291  0.00  0.00     0.137 C 
HETATM   19  C   UNK N   1      42.950  37.529  48.324  0.00  0.00     0.031 C 
HETATM   20  C   UNK N   1      42.367  38.789  48.960  0.00  0.00     0.032 C 
HETATM   21  C   UNK N   1      43.190  39.120  50.232  0.00  0.00     0.272 C 
HETATM   22  N   UNK N   1      43.714  37.906  50.914  0.00  0.00     0.092 N 
HETATM   23  C   UNK N   1      42.791  36.768  50.776  0.00  0.00     0.299 C 
BRANCH  22  24
HETATM   24  C   UNK N   1      44.138  38.187  52.298  0.00  0.00     0.302 C 
BRANCH  24  25
HETATM   25  C   UNK N   1      45.618  37.821  52.499  0.00  0.00     0.303 C 
BRANCH  25  26
HETATM   26  N   UNK N   1      46.449  38.447  51.449  0.00  0.00     0.102 N 
HETATM   27  C   UNK N   1      47.883  38.467  51.774  0.00  0.00     0.353 A 
HETATM   28  C   UNK N   1      48.221  37.477  50.674  0.00  0.00     0.295 A 
HETATM   29  F   UNK N   1      49.033  38.001  49.681  0.00  0.00    -0.203 F 
HETATM   30  F   UNK N   1      48.626  36.248  51.165  0.00  0.00    -0.203 F 
HETATM   31  C   UNK N   1      46.741  37.522  50.344  0.00  0.00     0.353 A 
ENDBRANCH  25  26
ENDBRANCH  24  25
ENDBRANCH  22  24
ENDBRANCH   4  18
BRANCH   1  32
HETATM   32  C   UNK N   1      37.925  35.357  49.300  0.00  0.00     0.272 C 
HETATM   33  O   UNK N   1      37.344  36.348  48.879  0.00  0.00    -0.266 OA
HETATM   34  N   UNK N   1      37.224  34.458  50.079  0.00  0.00    -0.343 N 
HETATM   35  C   UNK N   1      35.843  34.808  50.446  0.00  0.00     0.152 C 
HETATM   36  C   UNK N   1      37.891  33.304  50.690  0.00  0.00     0.152 C 
HETATM   37  C   UNK N   1      35.147  33.764  51.321  0.00  0.00     0.187 C 
HETATM   38  O   UNK N   1      36.052  33.230  52.262  0.00  0.00    -0.388 OA
HETATM   39  C   UNK N   1      36.959  32.429  51.535  0.00  0.00     0.187 C 
ENDBRANCH   1  32
TORSDOF 5
ENDMDL
