MODEL 1
REMARK VINA RESULT:      -8.8      0.000      0.000
REMARK  5 active torsions:
REMARK  status: ('A' for Active; 'I' for Inactive)
REMARK    1  A    between atoms: C_2  and  C_3 
REMARK       I    between atoms: C_2  and  N_33 
REMARK    2  A    between atoms: N_6  and  C_7 
REMARK    3  A    between atoms: N_11  and  C_12 
REMARK    4  A    between atoms: C_12  and  C_13 
REMARK    5  A    between atoms: C_13  and  N_14 
ROOT
HETATM    1  C   UNK N   1      39.212  38.614  52.361  0.00  0.00     0.126 A 
HETATM    2  N   UNK N   1      40.040  38.057  51.461  0.00  0.00    -0.292 N 
ATOM      3  HN  UNK N   1      39.741  37.514  50.650  1.00  0.00     0.187 HD
HETATM    4  N   UNK N   1      41.303  38.315  51.777  0.00  0.00    -0.284 N 
HETATM    5  C   UNK N   1      41.318  39.076  52.924  0.00  0.00     0.072 A 
HETATM    6  C   UNK N   1      39.982  39.274  53.309  0.00  0.00     0.019 A 
HETATM    7  C   UNK N   1      39.536  39.985  54.563  0.00  0.00     0.189 C 
HETATM    8  S   UNK N   1      40.644  39.402  55.836  0.00  0.00     0.180 S 
HETATM    9  O   UNK N   1      40.388  37.928  56.181  0.00  0.00    -0.222 OA
HETATM   10  O   UNK N   1      40.432  40.141  57.165  0.00  0.00    -0.222 OA
HETATM   11  C   UNK N   1      42.286  39.629  55.203  0.00  0.00     0.072 A 
HETATM   12  C   UNK N   1      43.334  39.963  56.065  0.00  0.00     0.024 A 
HETATM   13  C   UNK N   1      44.609  40.186  55.552  0.00  0.00     0.002 A 
HETATM   14  C   UNK N   1      44.831  40.089  54.180  0.00  0.00     0.001 A 
HETATM   15  C   UNK N   1      43.785  39.749  53.314  0.00  0.00     0.015 A 
HETATM   16  C   UNK N   1      42.493  39.493  53.804  0.00  0.00     0.014 A 
ENDROOT
BRANCH   4  17
HETATM   17  C   UNK N   1      42.363  37.573  51.053  0.00  0.00     0.137 C 
HETATM   18  C   UNK N   1      43.241  38.484  50.174  0.00  0.00     0.031 C 
HETATM   19  C   UNK N   1      44.393  37.680  49.585  0.00  0.00     0.032 C 
HETATM   20  C   UNK N   1      43.848  36.451  48.852  0.00  0.00     0.272 C 
HETATM   21  N   UNK N   1      43.124  35.581  49.806  0.00  0.00     0.092 N 
HETATM   22  C   UNK N   1      41.922  36.271  50.345  0.00  0.00     0.299 C 
BRANCH  21  23
HETATM   23  C   UNK N   1      42.807  34.276  49.190  0.00  0.00     0.302 C 
BRANCH  23  24
HETATM   24  C   UNK N   1      43.023  34.311  47.667  0.00  0.00     0.302 C 
BRANCH  24  25
HETATM   25  N   UNK N   1      43.880  33.193  47.241  0.00  0.00     0.093 N 
HETATM   26  C   UNK N   1      43.454  32.490  46.010  0.00  0.00     0.275 C 
HETATM   27  C   UNK N   1      44.699  32.365  45.131  0.00  0.00     0.069 C 
HETATM   28  C   UNK N   1      45.804  32.433  46.159  0.00  0.00     0.200 C 
HETATM   29  F   UNK N   1      47.044  32.697  45.606  0.00  0.00    -0.248 F 
HETATM   30  C   UNK N   1      45.281  33.564  47.023  0.00  0.00     0.309 C 
ENDBRANCH  24  25
ENDBRANCH  23  24
ENDBRANCH  21  23
ENDBRANCH   4  17
BRANCH   1  31
HETATM   31  C   UNK N   1      37.721  38.414  52.380  0.00  0.00     0.272 C 
HETATM   32  O   UNK N   1      37.022  39.325  51.960  0.00  0.00    -0.266 OA
HETATM   33  N   UNK N   1      37.098  37.288  52.879  0.00  0.00    -0.343 N 
HETATM   34  C   UNK N   1      37.865  36.163  53.424  0.00  0.00     0.152 C 
HETATM   35  C   UNK N   1      35.650  37.359  53.118  0.00  0.00     0.152 C 
HETATM   36  C   UNK N   1      36.994  34.930  53.684  0.00  0.00     0.187 C 
HETATM   37  O   UNK N   1      35.812  35.293  54.364  0.00  0.00    -0.388 OA
HETATM   38  C   UNK N   1      35.013  36.009  53.448  0.00  0.00     0.187 C 
ENDBRANCH   1  31
TORSDOF 5
ENDMDL
MODEL 2
REMARK VINA RESULT:      -8.7      6.647     10.954
REMARK  5 active torsions:
REMARK  status: ('A' for Active; 'I' for Inactive)
REMARK    1  A    between atoms: C_2  and  C_3 
REMARK       I    between atoms: C_2  and  N_33 
REMARK    2  A    between atoms: N_6  and  C_7 
REMARK    3  A    between atoms: N_11  and  C_12 
REMARK    4  A    between atoms: C_12  and  C_13 
REMARK    5  A    between atoms: C_13  and  N_14 
ROOT
HETATM    1  C   UNK N   1      38.470  32.973  44.046  0.00  0.00     0.126 A 
HETATM    2  N   UNK N   1      39.623  32.837  44.724  0.00  0.00    -0.292 N 
ATOM      3  HN  UNK N   1      39.696  32.755  45.739  1.00  0.00     0.187 HD
HETATM    4  N   UNK N   1      40.651  32.825  43.885  0.00  0.00    -0.284 N 
HETATM    5  C   UNK N   1      40.168  32.951  42.602  0.00  0.00     0.072 A 
HETATM    6  C   UNK N   1      38.769  33.046  42.692  0.00  0.00     0.019 A 
HETATM    7  C   UNK N   1      37.839  33.280  41.528  0.00  0.00     0.189 C 
HETATM    8  S   UNK N   1      38.651  34.524  40.538  0.00  0.00     0.180 S 
HETATM    9  O   UNK N   1      38.659  35.892  41.237  0.00  0.00    -0.222 OA
HETATM   10  O   UNK N   1      37.910  34.782  39.218  0.00  0.00    -0.222 OA
HETATM   11  C   UNK N   1      40.304  33.940  40.270  0.00  0.00     0.072 A 
HETATM   12  C   UNK N   1      40.962  34.211  39.068  0.00  0.00     0.024 A 
HETATM   13  C   UNK N   1      42.241  33.708  38.849  0.00  0.00     0.002 A 
HETATM   14  C   UNK N   1      42.854  32.922  39.823  0.00  0.00     0.001 A 
HETATM   15  C   UNK N   1      42.200  32.652  41.031  0.00  0.00     0.015 A 
HETATM   16  C   UNK N   1      40.920  33.168  41.292  0.00  0.00     0.014 A 
ENDROOT
BRANCH   4  17
HETATM   17  C   UNK N   1      42.013  32.943  44.459  0.00  0.00     0.137 C 
HETATM   18  C   UNK N   1      42.900  31.720  44.157  0.00  0.00     0.031 C 
HETATM   19  C   UNK N   1      44.320  31.978  44.644  0.00  0.00     0.032 C 
HETATM   20  C   UNK N   1      44.298  32.376  46.122  0.00  0.00     0.272 C 
HETATM   21  N   UNK N   1      43.523  33.627  46.290  0.00  0.00     0.092 N 
HETATM   22  C   UNK N   1      42.096  33.418  45.928  0.00  0.00     0.299 C 
BRANCH  21  23
HETATM   23  C   UNK N   1      43.694  34.171  47.654  0.00  0.00     0.302 C 
BRANCH  23  24
HETATM   24  C   UNK N   1      42.363  34.167  48.425  0.00  0.00     0.302 C 
BRANCH  24  25
HETATM   25  N   UNK N   1      42.179  35.437  49.145  0.00  0.00     0.093 N 
HETATM   26  C   UNK N   1      42.690  35.468  50.534  0.00  0.00     0.275 C 
HETATM   27  C   UNK N   1      43.504  36.756  50.666  0.00  0.00     0.069 C 
HETATM   28  C   UNK N   1      42.886  37.617  49.590  0.00  0.00     0.200 C 
HETATM   29  F   UNK N   1      43.666  38.709  49.254  0.00  0.00    -0.248 F 
HETATM   30  C   UNK N   1      42.777  36.595  48.475  0.00  0.00     0.309 C 
ENDBRANCH  24  25
ENDBRANCH  23  24
ENDBRANCH  21  23
ENDBRANCH   4  17
BRANCH   1  31
HETATM   31  C   UNK N   1      37.122  33.151  44.690  0.00  0.00     0.272 C 
HETATM   32  O   UNK N   1      36.819  34.272  45.071  0.00  0.00    -0.266 OA
HETATM   33  N   UNK N   1      36.231  32.120  44.912  0.00  0.00    -0.343 N 
HETATM   34  C   UNK N   1      36.530  30.742  44.508  0.00  0.00     0.152 C 
HETATM   35  C   UNK N   1      35.102  32.378  45.818  0.00  0.00     0.152 C 
HETATM   36  C   UNK N   1      35.313  29.820  44.619  0.00  0.00     0.187 C 
HETATM   37  O   UNK N   1      34.667  30.000  45.861  0.00  0.00    -0.388 OA
HETATM   38  C   UNK N   1      34.050  31.269  45.823  0.00  0.00     0.187 C 
ENDBRANCH   1  31
TORSDOF 5
ENDMDL
MODEL 3
REMARK VINA RESULT:      -8.3      2.779      3.993
REMARK  5 active torsions:
REMARK  status: ('A' for Active; 'I' for Inactive)
REMARK    1  A    between atoms: C_2  and  C_3 
REMARK       I    between atoms: C_2  and  N_33 
REMARK    2  A    between atoms: N_6  and  C_7 
REMARK    3  A    between atoms: N_11  and  C_12 
REMARK    4  A    between atoms: C_12  and  C_13 
REMARK    5  A    between atoms: C_13  and  N_14 
ROOT
HETATM    1  C   UNK N   1      39.971  37.796  49.809  0.00  0.00     0.126 A 
HETATM    2  N   UNK N   1      40.207  36.650  49.147  0.00  0.00    -0.292 N 
ATOM      3  HN  UNK N   1      39.486  36.040  48.762  1.00  0.00     0.187 HD
HETATM    4  N   UNK N   1      41.513  36.428  49.066  0.00  0.00    -0.284 N 
HETATM    5  C   UNK N   1      42.171  37.464  49.689  0.00  0.00     0.072 A 
HETATM    6  C   UNK N   1      41.192  38.349  50.170  0.00  0.00     0.019 A 
HETATM    7  C   UNK N   1      41.467  39.583  50.993  0.00  0.00     0.189 C 
HETATM    8  S   UNK N   1      42.718  39.082  52.163  0.00  0.00     0.180 S 
HETATM    9  O   UNK N   1      42.161  38.104  53.208  0.00  0.00    -0.222 OA
HETATM   10  O   UNK N   1      43.234  40.265  52.995  0.00  0.00    -0.222 OA
HETATM   11  C   UNK N   1      44.009  38.325  51.211  0.00  0.00     0.072 A 
HETATM   12  C   UNK N   1      45.344  38.456  51.602  0.00  0.00     0.024 A 
HETATM   13  C   UNK N   1      46.353  37.898  50.823  0.00  0.00     0.002 A 
HETATM   14  C   UNK N   1      46.029  37.224  49.647  0.00  0.00     0.001 A 
HETATM   15  C   UNK N   1      44.693  37.086  49.254  0.00  0.00     0.015 A 
HETATM   16  C   UNK N   1      43.650  37.615  50.034  0.00  0.00     0.014 A 
ENDROOT
BRANCH   4  17
HETATM   17  C   UNK N   1      41.959  35.092  48.602  0.00  0.00     0.137 C 
HETATM   18  C   UNK N   1      42.832  34.358  49.637  0.00  0.00     0.031 C 
HETATM   19  C   UNK N   1      43.124  32.942  49.154  0.00  0.00     0.032 C 
HETATM   20  C   UNK N   1      43.733  32.986  47.750  0.00  0.00     0.272 C 
HETATM   21  N   UNK N   1      42.770  33.600  46.808  0.00  0.00     0.092 N 
HETATM   22  C   UNK N   1      42.517  35.022  47.161  0.00  0.00     0.299 C 
BRANCH  21  23
HETATM   23  C   UNK N   1      43.221  33.429  45.411  0.00  0.00     0.302 C 
BRANCH  23  24
HETATM   24  C   UNK N   1      42.399  34.306  44.450  0.00  0.00     0.302 C 
BRANCH  24  25
HETATM   25  N   UNK N   1      41.729  33.475  43.437  0.00  0.00     0.093 N 
HETATM   26  C   UNK N   1      41.870  33.932  42.036  0.00  0.00     0.275 C 
HETATM   27  C   UNK N   1      42.271  32.702  41.219  0.00  0.00     0.069 C 
HETATM   28  C   UNK N   1      41.726  31.582  42.072  0.00  0.00     0.200 C 
HETATM   29  F   UNK N   1      42.255  30.346  41.747  0.00  0.00    -0.248 F 
HETATM   30  C   UNK N   1      42.151  32.072  43.442  0.00  0.00     0.309 C 
ENDBRANCH  24  25
ENDBRANCH  23  24
ENDBRANCH  21  23
ENDBRANCH   4  17
BRANCH   1  31
HETATM   31  C   UNK N   1      38.601  38.289  50.192  0.00  0.00     0.272 C 
HETATM   32  O   UNK N   1      38.147  39.239  49.573  0.00  0.00    -0.266 OA
HETATM   33  N   UNK N   1      37.851  37.759  51.223  0.00  0.00    -0.343 N 
HETATM   34  C   UNK N   1      38.336  36.635  52.030  0.00  0.00     0.152 C 
HETATM   35  C   UNK N   1      36.685  38.528  51.682  0.00  0.00     0.152 C 
HETATM   36  C   UNK N   1      37.250  36.053  52.939  0.00  0.00     0.187 C 
HETATM   37  O   UNK N   1      36.567  37.085  53.618  0.00  0.00    -0.388 OA
HETATM   38  C   UNK N   1      35.789  37.765  52.657  0.00  0.00     0.187 C 
ENDBRANCH   1  31
TORSDOF 5
ENDMDL
MODEL 4
REMARK VINA RESULT:      -8.3      5.864      9.277
REMARK  5 active torsions:
REMARK  status: ('A' for Active; 'I' for Inactive)
REMARK    1  A    between atoms: C_2  and  C_3 
REMARK       I    between atoms: C_2  and  N_33 
REMARK    2  A    between atoms: N_6  and  C_7 
REMARK    3  A    between atoms: N_11  and  C_12 
REMARK    4  A    between atoms: C_12  and  C_13 
REMARK    5  A    between atoms: C_13  and  N_14 
ROOT
HETATM    1  C   UNK N   1      39.260  33.361  45.720  0.00  0.00     0.126 A 
HETATM    2  N   UNK N   1      39.466  33.985  46.893  0.00  0.00    -0.292 N 
ATOM      3  HN  UNK N   1      38.743  34.456  47.437  1.00  0.00     0.187 HD
HETATM    4  N   UNK N   1      40.744  33.900  47.241  0.00  0.00    -0.284 N 
HETATM    5  C   UNK N   1      41.413  33.188  46.271  0.00  0.00     0.072 A 
HETATM    6  C   UNK N   1      40.472  32.837  45.289  0.00  0.00     0.019 A 
HETATM    7  C   UNK N   1      40.787  32.121  44.000  0.00  0.00     0.189 C 
HETATM    8  S   UNK N   1      42.291  32.883  43.411  0.00  0.00     0.180 S 
HETATM    9  O   UNK N   1      42.051  34.326  42.940  0.00  0.00    -0.222 OA
HETATM   10  O   UNK N   1      42.849  32.172  42.171  0.00  0.00    -0.222 OA
HETATM   11  C   UNK N   1      43.430  32.843  44.771  0.00  0.00     0.072 A 
HETATM   12  C   UNK N   1      44.797  32.674  44.540  0.00  0.00     0.024 A 
HETATM   13  C   UNK N   1      45.677  32.595  45.616  0.00  0.00     0.002 A 
HETATM   14  C   UNK N   1      45.188  32.670  46.919  0.00  0.00     0.001 A 
HETATM   15  C   UNK N   1      43.819  32.844  47.154  0.00  0.00     0.015 A 
HETATM   16  C   UNK N   1      42.910  32.954  46.088  0.00  0.00     0.014 A 
ENDROOT
BRANCH   4  17
HETATM   17  C   UNK N   1      41.212  34.743  48.367  0.00  0.00     0.137 C 
HETATM   18  C   UNK N   1      40.056  35.350  49.184  0.00  0.00     0.031 C 
HETATM   19  C   UNK N   1      40.611  36.073  50.405  0.00  0.00     0.032 C 
HETATM   20  C   UNK N   1      41.665  37.095  49.970  0.00  0.00     0.272 C 
HETATM   21  N   UNK N   1      42.788  36.399  49.302  0.00  0.00     0.092 N 
HETATM   22  C   UNK N   1      42.336  35.753  48.041  0.00  0.00     0.299 C 
BRANCH  21  23
HETATM   23  C   UNK N   1      43.928  37.317  49.098  0.00  0.00     0.302 C 
BRANCH  23  24
HETATM   24  C   UNK N   1      44.432  37.885  50.436  0.00  0.00     0.302 C 
BRANCH  24  25
HETATM   25  N   UNK N   1      45.858  37.573  50.625  0.00  0.00     0.093 N 
HETATM   26  C   UNK N   1      46.729  37.807  49.451  0.00  0.00     0.275 C 
HETATM   27  C   UNK N   1      47.941  38.588  49.961  0.00  0.00     0.069 C 
HETATM   28  C   UNK N   1      47.964  38.192  51.418  0.00  0.00     0.200 C 
HETATM   29  F   UNK N   1      48.747  39.027  52.194  0.00  0.00    -0.248 F 
HETATM   30  C   UNK N   1      46.485  38.294  51.735  0.00  0.00     0.309 C 
ENDBRANCH  24  25
ENDBRANCH  23  24
ENDBRANCH  21  23
ENDBRANCH   4  17
BRANCH   1  31
HETATM   31  C   UNK N   1      37.956  33.372  44.970  0.00  0.00     0.272 C 
HETATM   32  O   UNK N   1      37.671  34.381  44.342  0.00  0.00    -0.266 OA
HETATM   33  N   UNK N   1      37.048  32.331  44.985  0.00  0.00    -0.343 N 
HETATM   34  C   UNK N   1      37.303  31.098  45.736  0.00  0.00     0.152 C 
HETATM   35  C   UNK N   1      35.697  32.598  44.471  0.00  0.00     0.152 C 
HETATM   36  C   UNK N   1      36.295  29.993  45.410  0.00  0.00     0.187 C 
HETATM   37  O   UNK N   1      34.978  30.501  45.436  0.00  0.00    -0.388 OA
HETATM   38  C   UNK N   1      34.839  31.343  44.312  0.00  0.00     0.187 C 
ENDBRANCH   1  31
TORSDOF 5
ENDMDL
MODEL 5
REMARK VINA RESULT:      -8.3      2.526      4.027
REMARK  5 active torsions:
REMARK  status: ('A' for Active; 'I' for Inactive)
REMARK    1  A    between atoms: C_2  and  C_3 
REMARK       I    between atoms: C_2  and  N_33 
REMARK    2  A    between atoms: N_6  and  C_7 
REMARK    3  A    between atoms: N_11  and  C_12 
REMARK    4  A    between atoms: C_12  and  C_13 
REMARK    5  A    between atoms: C_13  and  N_14 
ROOT
HETATM    1  C   UNK N   1      40.365  39.826  52.975  0.00  0.00     0.126 A 
HETATM    2  N   UNK N   1      39.720  39.027  52.108  0.00  0.00    -0.292 N 
ATOM      3  HN  UNK N   1      38.721  38.824  52.134  1.00  0.00     0.187 HD
HETATM    4  N   UNK N   1      40.571  38.540  51.212  0.00  0.00    -0.284 N 
HETATM    5  C   UNK N   1      41.824  39.037  51.488  0.00  0.00     0.072 A 
HETATM    6  C   UNK N   1      41.706  39.864  52.617  0.00  0.00     0.019 A 
HETATM    7  C   UNK N   1      42.853  40.550  53.316  0.00  0.00     0.189 C 
HETATM    8  S   UNK N   1      44.151  39.325  53.370  0.00  0.00     0.180 S 
HETATM    9  O   UNK N   1      43.812  38.179  54.335  0.00  0.00    -0.222 OA
HETATM   10  O   UNK N   1      45.463  39.902  53.920  0.00  0.00    -0.222 OA
HETATM   11  C   UNK N   1      44.332  38.724  51.711  0.00  0.00     0.072 A 
HETATM   12  C   UNK N   1      45.590  38.350  51.230  0.00  0.00     0.024 A 
HETATM   13  C   UNK N   1      45.729  37.925  49.912  0.00  0.00     0.002 A 
HETATM   14  C   UNK N   1      44.616  37.888  49.073  0.00  0.00     0.001 A 
HETATM   15  C   UNK N   1      43.354  38.256  49.553  0.00  0.00     0.015 A 
HETATM   16  C   UNK N   1      43.177  38.664  50.887  0.00  0.00     0.014 A 
ENDROOT
BRANCH   4  17
HETATM   17  C   UNK N   1      40.098  37.442  50.335  0.00  0.00     0.137 C 
HETATM   18  C   UNK N   1      38.635  37.045  50.604  0.00  0.00     0.031 C 
HETATM   19  C   UNK N   1      38.178  36.023  49.570  0.00  0.00     0.032 C 
HETATM   20  C   UNK N   1      39.146  34.838  49.548  0.00  0.00     0.272 C 
HETATM   21  N   UNK N   1      40.497  35.305  49.163  0.00  0.00     0.092 N 
HETATM   22  C   UNK N   1      41.049  36.232  50.186  0.00  0.00     0.299 C 
BRANCH  21  23
HETATM   23  C   UNK N   1      41.390  34.160  48.887  0.00  0.00     0.302 C 
BRANCH  23  24
HETATM   24  C   UNK N   1      41.897  34.186  47.435  0.00  0.00     0.302 C 
BRANCH  24  25
HETATM   25  N   UNK N   1      42.706  32.991  47.148  0.00  0.00     0.093 N 
HETATM   26  C   UNK N   1      43.596  33.084  45.969  0.00  0.00     0.275 C 
HETATM   27  C   UNK N   1      44.968  32.582  46.422  0.00  0.00     0.069 C 
HETATM   28  C   UNK N   1      44.595  31.690  47.582  0.00  0.00     0.200 C 
HETATM   29  F   UNK N   1      45.670  31.384  48.398  0.00  0.00    -0.248 F 
HETATM   30  C   UNK N   1      43.562  32.569  48.260  0.00  0.00     0.309 C 
ENDBRANCH  24  25
ENDBRANCH  23  24
ENDBRANCH  21  23
ENDBRANCH   4  17
BRANCH   1  31
HETATM   31  C   UNK N   1      39.731  40.444  54.192  0.00  0.00     0.272 C 
HETATM   32  O   UNK N   1      39.202  41.538  54.062  0.00  0.00    -0.266 OA
HETATM   33  N   UNK N   1      39.749  39.869  55.448  0.00  0.00    -0.343 N 
HETATM   34  C   UNK N   1      40.385  38.571  55.691  0.00  0.00     0.152 C 
HETATM   35  C   UNK N   1      39.372  40.714  56.589  0.00  0.00     0.152 C 
HETATM   36  C   UNK N   1      40.068  38.013  57.081  0.00  0.00     0.187 C 
HETATM   37  O   UNK N   1      40.243  39.010  58.066  0.00  0.00    -0.388 OA
HETATM   38  C   UNK N   1      39.197  39.942  57.897  0.00  0.00     0.187 C 
ENDBRANCH   1  31
TORSDOF 5
ENDMDL
MODEL 6
REMARK VINA RESULT:      -7.9      5.166      9.654
REMARK  5 active torsions:
REMARK  status: ('A' for Active; 'I' for Inactive)
REMARK    1  A    between atoms: C_2  and  C_3 
REMARK       I    between atoms: C_2  and  N_33 
REMARK    2  A    between atoms: N_6  and  C_7 
REMARK    3  A    between atoms: N_11  and  C_12 
REMARK    4  A    between atoms: C_12  and  C_13 
REMARK    5  A    between atoms: C_13  and  N_14 
ROOT
HETATM    1  C   UNK N   1      41.970  38.600  52.210  0.00  0.00     0.126 A 
HETATM    2  N   UNK N   1      40.651  38.728  52.436  0.00  0.00    -0.292 N 
ATOM      3  HN  UNK N   1      39.925  38.607  51.730  1.00  0.00     0.187 HD
HETATM    4  N   UNK N   1      40.430  39.033  53.708  0.00  0.00    -0.284 N 
HETATM    5  C   UNK N   1      41.643  39.104  54.356  0.00  0.00     0.072 A 
HETATM    6  C   UNK N   1      42.640  38.828  53.405  0.00  0.00     0.019 A 
HETATM    7  C   UNK N   1      44.125  38.881  53.663  0.00  0.00     0.189 C 
HETATM    8  S   UNK N   1      44.364  40.350  54.651  0.00  0.00     0.180 S 
HETATM    9  O   UNK N   1      44.122  41.629  53.836  0.00  0.00    -0.222 OA
HETATM   10  O   UNK N   1      45.813  40.484  55.140  0.00  0.00    -0.222 OA
HETATM   11  C   UNK N   1      43.215  40.231  55.998  0.00  0.00     0.072 A 
HETATM   12  C   UNK N   1      43.551  40.734  57.257  0.00  0.00     0.024 A 
HETATM   13  C   UNK N   1      42.662  40.593  58.319  0.00  0.00     0.002 A 
HETATM   14  C   UNK N   1      41.448  39.937  58.126  0.00  0.00     0.001 A 
HETATM   15  C   UNK N   1      41.106  39.436  56.865  0.00  0.00     0.015 A 
HETATM   16  C   UNK N   1      41.971  39.586  55.767  0.00  0.00     0.014 A 
ENDROOT
BRANCH   4  17
HETATM   17  C   UNK N   1      39.064  39.465  54.089  0.00  0.00     0.137 C 
HETATM   18  C   UNK N   1      37.973  38.885  53.170  0.00  0.00     0.031 C 
HETATM   19  C   UNK N   1      36.595  39.247  53.712  0.00  0.00     0.032 C 
HETATM   20  C   UNK N   1      36.497  40.762  53.909  0.00  0.00     0.272 C 
HETATM   21  N   UNK N   1      37.507  41.203  54.898  0.00  0.00     0.092 N 
HETATM   22  C   UNK N   1      38.884  40.971  54.388  0.00  0.00     0.299 C 
BRANCH  21  23
HETATM   23  C   UNK N   1      37.273  42.607  55.298  0.00  0.00     0.302 C 
BRANCH  23  24
HETATM   24  C   UNK N   1      37.560  42.814  56.795  0.00  0.00     0.302 C 
BRANCH  24  25
HETATM   25  N   UNK N   1      36.588  43.751  57.381  0.00  0.00     0.093 N 
HETATM   26  C   UNK N   1      37.019  45.166  57.447  0.00  0.00     0.275 C 
HETATM   27  C   UNK N   1      35.860  45.997  56.895  0.00  0.00     0.069 C 
HETATM   28  C   UNK N   1      34.685  45.082  57.148  0.00  0.00     0.200 C 
HETATM   29  F   UNK N   1      33.558  45.435  56.428  0.00  0.00    -0.248 F 
HETATM   30  C   UNK N   1      35.288  43.762  56.707  0.00  0.00     0.309 C 
ENDBRANCH  24  25
ENDBRANCH  23  24
ENDBRANCH  21  23
ENDBRANCH   4  17
BRANCH   1  31
HETATM   31  C   UNK N   1      42.583  38.384  50.853  0.00  0.00     0.272 C 
HETATM   32  O   UNK N   1      43.351  39.237  50.435  0.00  0.00    -0.266 OA
HETATM   33  N   UNK N   1      42.295  37.305  50.039  0.00  0.00    -0.343 N 
HETATM   34  C   UNK N   1      41.364  36.253  50.457  0.00  0.00     0.152 C 
HETATM   35  C   UNK N   1      42.718  37.381  48.634  0.00  0.00     0.152 C 
HETATM   36  C   UNK N   1      41.389  35.041  49.521  0.00  0.00     0.187 C 
HETATM   37  O   UNK N   1      41.329  35.456  48.172  0.00  0.00    -0.388 OA
HETATM   38  C   UNK N   1      42.568  36.063  47.873  0.00  0.00     0.187 C 
ENDBRANCH   1  31
TORSDOF 5
ENDMDL
MODEL 7
REMARK VINA RESULT:      -7.9      8.112     12.146
REMARK  5 active torsions:
REMARK  status: ('A' for Active; 'I' for Inactive)
REMARK    1  A    between atoms: C_2  and  C_3 
REMARK       I    between atoms: C_2  and  N_33 
REMARK    2  A    between atoms: N_6  and  C_7 
REMARK    3  A    between atoms: N_11  and  C_12 
REMARK    4  A    between atoms: C_12  and  C_13 
REMARK    5  A    between atoms: C_13  and  N_14 
ROOT
HETATM    1  C   UNK N   1      40.220  33.983  44.976  0.00  0.00     0.126 A 
HETATM    2  N   UNK N   1      38.998  33.509  45.274  0.00  0.00    -0.292 N 
ATOM      3  HN  UNK N   1      38.693  33.228  46.206  1.00  0.00     0.187 HD
HETATM    4  N   UNK N   1      38.246  33.459  44.181  0.00  0.00    -0.284 N 
HETATM    5  C   UNK N   1      38.989  33.922  43.119  0.00  0.00     0.072 A 
HETATM    6  C   UNK N   1      40.259  34.262  43.616  0.00  0.00     0.019 A 
HETATM    7  C   UNK N   1      41.421  34.734  42.779  0.00  0.00     0.189 C 
HETATM    8  S   UNK N   1      41.396  33.688  41.332  0.00  0.00     0.180 S 
HETATM    9  O   UNK N   1      41.795  32.243  41.668  0.00  0.00    -0.222 OA
HETATM   10  O   UNK N   1      42.430  34.129  40.286  0.00  0.00    -0.222 OA
HETATM   11  C   UNK N   1      39.740  33.758  40.701  0.00  0.00     0.072 A 
HETATM   12  C   UNK N   1      39.506  33.694  39.325  0.00  0.00     0.024 A 
HETATM   13  C   UNK N   1      38.206  33.797  38.837  0.00  0.00     0.002 A 
HETATM   14  C   UNK N   1      37.145  33.979  39.722  0.00  0.00     0.001 A 
HETATM   15  C   UNK N   1      37.375  34.038  41.102  0.00  0.00     0.015 A 
HETATM   16  C   UNK N   1      38.672  33.911  41.626  0.00  0.00     0.014 A 
ENDROOT
BRANCH   4  17
HETATM   17  C   UNK N   1      36.960  32.726  44.260  0.00  0.00     0.137 C 
HETATM   18  C   UNK N   1      36.202  32.983  45.576  0.00  0.00     0.031 C 
HETATM   19  C   UNK N   1      34.830  32.322  45.520  0.00  0.00     0.032 C 
HETATM   20  C   UNK N   1      34.982  30.839  45.173  0.00  0.00     0.272 C 
HETATM   21  N   UNK N   1      35.611  30.700  43.840  0.00  0.00     0.092 N 
HETATM   22  C   UNK N   1      36.998  31.235  43.850  0.00  0.00     0.299 C 
BRANCH  21  23
HETATM   23  C   UNK N   1      35.541  29.300  43.369  0.00  0.00     0.302 C 
BRANCH  23  24
HETATM   24  C   UNK N   1      36.882  28.576  43.577  0.00  0.00     0.302 C 
BRANCH  24  25
HETATM   25  N   UNK N   1      36.809  27.677  44.740  0.00  0.00     0.093 N 
HETATM   26  C   UNK N   1      37.377  26.324  44.543  0.00  0.00     0.275 C 
HETATM   27  C   UNK N   1      38.276  26.055  45.751  0.00  0.00     0.069 C 
HETATM   28  C   UNK N   1      37.669  26.967  46.790  0.00  0.00     0.200 C 
HETATM   29  F   UNK N   1      38.501  27.185  47.873  0.00  0.00    -0.248 F 
HETATM   30  C   UNK N   1      37.450  28.207  45.945  0.00  0.00     0.309 C 
ENDBRANCH  24  25
ENDBRANCH  23  24
ENDBRANCH  21  23
ENDBRANCH   4  17
BRANCH   1  31
HETATM   31  C   UNK N   1      41.365  34.054  45.950  0.00  0.00     0.272 C 
HETATM   32  O   UNK N   1      41.305  34.895  46.834  0.00  0.00    -0.266 OA
HETATM   33  N   UNK N   1      42.490  33.256  45.880  0.00  0.00    -0.343 N 
HETATM   34  C   UNK N   1      42.649  32.241  44.834  0.00  0.00     0.152 C 
HETATM   35  C   UNK N   1      43.650  33.640  46.696  0.00  0.00     0.152 C 
HETATM   36  C   UNK N   1      43.839  31.312  45.093  0.00  0.00     0.187 C 
HETATM   37  O   UNK N   1      44.983  32.061  45.443  0.00  0.00    -0.388 OA
HETATM   38  C   UNK N   1      44.754  32.585  46.733  0.00  0.00     0.187 C 
ENDBRANCH   1  31
TORSDOF 5
ENDMDL
MODEL 8
REMARK VINA RESULT:      -7.8      3.602      6.883
REMARK  5 active torsions:
REMARK  status: ('A' for Active; 'I' for Inactive)
REMARK    1  A    between atoms: C_2  and  C_3 
REMARK       I    between atoms: C_2  and  N_33 
REMARK    2  A    between atoms: N_6  and  C_7 
REMARK    3  A    between atoms: N_11  and  C_12 
REMARK    4  A    between atoms: C_12  and  C_13 
REMARK    5  A    between atoms: C_13  and  N_14 
ROOT
HETATM    1  C   UNK N   1      37.460  36.061  53.080  0.00  0.00     0.126 A 
HETATM    2  N   UNK N   1      38.570  35.970  52.328  0.00  0.00    -0.292 N 
ATOM      3  HN  UNK N   1      39.391  35.414  52.565  1.00  0.00     0.187 HD
HETATM    4  N   UNK N   1      38.444  36.709  51.233  0.00  0.00    -0.284 N 
HETATM    5  C   UNK N   1      37.204  37.307  51.251  0.00  0.00     0.072 A 
HETATM    6  C   UNK N   1      36.562  36.899  52.432  0.00  0.00     0.019 A 
HETATM    7  C   UNK N   1      35.213  37.383  52.899  0.00  0.00     0.189 C 
HETATM    8  S   UNK N   1      35.221  39.139  52.575  0.00  0.00     0.180 S 
HETATM    9  O   UNK N   1      36.184  39.886  53.510  0.00  0.00    -0.222 OA
HETATM   10  O   UNK N   1      33.855  39.782  52.852  0.00  0.00    -0.222 OA
HETATM   11  C   UNK N   1      35.712  39.325  50.880  0.00  0.00     0.072 A 
HETATM   12  C   UNK N   1      35.184  40.359  50.102  0.00  0.00     0.024 A 
HETATM   13  C   UNK N   1      35.539  40.468  48.761  0.00  0.00     0.002 A 
HETATM   14  C   UNK N   1      36.408  39.537  48.195  0.00  0.00     0.001 A 
HETATM   15  C   UNK N   1      36.943  38.502  48.972  0.00  0.00     0.015 A 
HETATM   16  C   UNK N   1      36.624  38.382  50.336  0.00  0.00     0.014 A 
ENDROOT
BRANCH   4  17
HETATM   17  C   UNK N   1      39.656  36.941  50.411  0.00  0.00     0.137 C 
HETATM   18  C   UNK N   1      40.206  35.651  49.775  0.00  0.00     0.031 C 
HETATM   19  C   UNK N   1      41.354  35.989  48.830  0.00  0.00     0.032 C 
HETATM   20  C   UNK N   1      42.410  36.814  49.570  0.00  0.00     0.272 C 
HETATM   21  N   UNK N   1      41.813  38.085  50.038  0.00  0.00     0.092 N 
HETATM   22  C   UNK N   1      40.749  37.832  51.045  0.00  0.00     0.299 C 
BRANCH  21  23
HETATM   23  C   UNK N   1      42.858  39.008  50.529  0.00  0.00     0.302 C 
BRANCH  23  24
HETATM   24  C   UNK N   1      43.526  38.464  51.804  0.00  0.00     0.302 C 
BRANCH  24  25
HETATM   25  N   UNK N   1      43.689  39.536  52.799  0.00  0.00     0.093 N 
HETATM   26  C   UNK N   1      42.438  40.168  53.275  0.00  0.00     0.275 C 
HETATM   27  C   UNK N   1      42.529  40.213  54.800  0.00  0.00     0.069 C 
HETATM   28  C   UNK N   1      44.024  40.190  55.014  0.00  0.00     0.200 C 
HETATM   29  F   UNK N   1      44.382  39.867  56.311  0.00  0.00    -0.248 F 
HETATM   30  C   UNK N   1      44.411  39.126  54.006  0.00  0.00     0.309 C 
ENDBRANCH  24  25
ENDBRANCH  23  24
ENDBRANCH  21  23
ENDBRANCH   4  17
BRANCH   1  31
HETATM   31  C   UNK N   1      37.310  35.453  54.449  0.00  0.00     0.272 C 
HETATM   32  O   UNK N   1      36.640  34.436  54.547  0.00  0.00    -0.266 OA
HETATM   33  N   UNK N   1      37.846  35.998  55.599  0.00  0.00    -0.343 N 
HETATM   34  C   UNK N   1      38.640  37.230  55.569  0.00  0.00     0.152 C 
HETATM   35  C   UNK N   1      37.366  35.479  56.887  0.00  0.00     0.152 C 
HETATM   36  C   UNK N   1      39.340  37.510  56.901  0.00  0.00     0.187 C 
HETATM   37  O   UNK N   1      38.440  37.351  57.977  0.00  0.00    -0.388 OA
HETATM   38  C   UNK N   1      38.173  35.969  58.089  0.00  0.00     0.187 C 
ENDBRANCH   1  31
TORSDOF 5
ENDMDL
MODEL 9
REMARK VINA RESULT:      -7.8      4.452      7.917
REMARK  5 active torsions:
REMARK  status: ('A' for Active; 'I' for Inactive)
REMARK    1  A    between atoms: C_2  and  C_3 
REMARK       I    between atoms: C_2  and  N_33 
REMARK    2  A    between atoms: N_6  and  C_7 
REMARK    3  A    between atoms: N_11  and  C_12 
REMARK    4  A    between atoms: C_12  and  C_13 
REMARK    5  A    between atoms: C_13  and  N_14 
ROOT
HETATM    1  C   UNK N   1      43.951  37.162  49.077  0.00  0.00     0.126 A 
HETATM    2  N   UNK N   1      44.073  36.023  48.375  0.00  0.00    -0.292 N 
ATOM      3  HN  UNK N   1      44.914  35.732  47.876  1.00  0.00     0.187 HD
HETATM    4  N   UNK N   1      42.942  35.329  48.425  0.00  0.00    -0.284 N 
HETATM    5  C   UNK N   1      42.037  36.027  49.193  0.00  0.00     0.072 A 
HETATM    6  C   UNK N   1      42.672  37.206  49.617  0.00  0.00     0.019 A 
HETATM    7  C   UNK N   1      42.018  38.307  50.413  0.00  0.00     0.189 C 
HETATM    8  S   UNK N   1      40.403  38.504  49.677  0.00  0.00     0.180 S 
HETATM    9  O   UNK N   1      40.490  39.118  48.271  0.00  0.00    -0.222 OA
HETATM   10  O   UNK N   1      39.530  39.492  50.463  0.00  0.00    -0.222 OA
HETATM   11  C   UNK N   1      39.687  36.883  49.617  0.00  0.00     0.072 A 
HETATM   12  C   UNK N   1      38.310  36.713  49.787  0.00  0.00     0.024 A 
HETATM   13  C   UNK N   1      37.764  35.433  49.786  0.00  0.00     0.002 A 
HETATM   14  C   UNK N   1      38.594  34.324  49.630  0.00  0.00     0.001 A 
HETATM   15  C   UNK N   1      39.973  34.490  49.454  0.00  0.00     0.015 A 
HETATM   16  C   UNK N   1      40.550  35.771  49.424  0.00  0.00     0.014 A 
ENDROOT
BRANCH   4  17
HETATM   17  C   UNK N   1      42.797  34.175  47.505  0.00  0.00     0.137 C 
HETATM   18  C   UNK N   1      44.123  33.430  47.263  0.00  0.00     0.031 C 
HETATM   19  C   UNK N   1      43.866  32.176  46.436  0.00  0.00     0.032 C 
HETATM   20  C   UNK N   1      43.120  32.545  45.151  0.00  0.00     0.272 C 
HETATM   21  N   UNK N   1      41.810  33.144  45.490  0.00  0.00     0.092 N 
HETATM   22  C   UNK N   1      41.987  34.431  46.214  0.00  0.00     0.299 C 
BRANCH  21  23
HETATM   23  C   UNK N   1      40.965  33.278  44.284  0.00  0.00     0.302 C 
BRANCH  23  24
HETATM   24  C   UNK N   1      41.794  33.733  43.071  0.00  0.00     0.302 C 
BRANCH  24  25
HETATM   25  N   UNK N   1      41.089  34.793  42.333  0.00  0.00     0.093 N 
HETATM   26  C   UNK N   1      40.499  34.390  41.036  0.00  0.00     0.275 C 
HETATM   27  C   UNK N   1      39.066  34.924  41.030  0.00  0.00     0.069 C 
HETATM   28  C   UNK N   1      39.168  36.076  42.001  0.00  0.00     0.200 C 
HETATM   29  F   UNK N   1      37.936  36.516  42.451  0.00  0.00    -0.248 F 
HETATM   30  C   UNK N   1      40.002  35.424  43.086  0.00  0.00     0.309 C 
ENDBRANCH  24  25
ENDBRANCH  23  24
ENDBRANCH  21  23
ENDBRANCH   4  17
BRANCH   1  31
HETATM   31  C   UNK N   1      44.996  38.244  49.128  0.00  0.00     0.272 C 
HETATM   32  O   UNK N   1      44.683  39.354  48.726  0.00  0.00    -0.266 OA
HETATM   33  N   UNK N   1      46.292  38.045  49.561  0.00  0.00    -0.343 N 
HETATM   34  C   UNK N   1      46.753  36.736  50.035  0.00  0.00     0.152 C 
HETATM   35  C   UNK N   1      47.278  39.095  49.268  0.00  0.00     0.152 C 
HETATM   36  C   UNK N   1      48.132  36.803  50.698  0.00  0.00     0.187 C 
HETATM   37  O   UNK N   1      49.027  37.552  49.902  0.00  0.00    -0.388 OA
HETATM   38  C   UNK N   1      48.617  38.900  49.979  0.00  0.00     0.187 C 
ENDBRANCH   1  31
TORSDOF 5
ENDMDL
