MODEL 1
REMARK VINA RESULT:      -8.8      0.000      0.000
REMARK  4 active torsions:
REMARK  status: ('A' for Active; 'I' for Inactive)
REMARK    1  A    between atoms: O_2  and  C_3 
REMARK    2  A    between atoms: C_14  and  C_15 
REMARK       I    between atoms: C_15  and  N_17 
REMARK    3  A    between atoms: N_25  and  C_26 
REMARK    4  A    between atoms: N_30  and  C_31 
ROOT
HETATM    1  C   UNK N   1      46.454  38.299  51.855  0.00  0.00     0.069 A 
HETATM    2  C   UNK N   1      46.345  37.635  50.630  0.00  0.00     0.038 A 
HETATM    3  C   UNK N   1      45.096  37.431  50.034  0.00  0.00     0.018 A 
HETATM    4  C   UNK N   1      43.917  37.889  50.655  0.00  0.00     0.015 A 
HETATM    5  C   UNK N   1      44.045  38.603  51.866  0.00  0.00     0.074 A 
HETATM    6  C   UNK N   1      45.289  38.794  52.470  0.00  0.00     0.061 A 
HETATM    7  S   UNK N   1      42.582  39.290  52.590  0.00  0.00     0.180 S 
HETATM    8  O   UNK N   1      42.898  40.549  53.411  0.00  0.00    -0.222 OA
HETATM    9  O   UNK N   1      42.015  38.326  53.644  0.00  0.00    -0.222 OA
HETATM   10  C   UNK N   1      41.358  39.631  51.324  0.00  0.00     0.189 C 
HETATM   11  C   UNK N   1      41.427  38.485  50.346  0.00  0.00     0.019 A 
HETATM   12  C   UNK N   1      40.378  37.937  49.621  0.00  0.00     0.126 A 
HETATM   13  N   UNK N   1      40.834  36.861  48.951  0.00  0.00    -0.292 N 
ATOM     14  HN  UNK N   1      40.277  36.269  48.336  1.00  0.00     0.187 HD
HETATM   15  N   UNK N   1      42.124  36.693  49.218  0.00  0.00    -0.284 N 
HETATM   16  C   UNK N   1      42.539  37.685  50.059  0.00  0.00     0.072 A 
ENDROOT
BRANCH  15  17
HETATM   17  C   UNK N   1      42.847  35.489  48.766  0.00  0.00     0.137 C 
HETATM   18  C   UNK N   1      42.335  34.248  49.516  0.00  0.00     0.031 C 
HETATM   19  C   UNK N   1      43.060  33.000  49.011  0.00  0.00     0.032 C 
HETATM   20  C   UNK N   1      42.887  32.872  47.491  0.00  0.00     0.273 C 
HETATM   21  N   UNK N   1      43.437  34.073  46.817  0.00  0.00     0.097 N 
HETATM   22  C   UNK N   1      42.683  35.278  47.253  0.00  0.00     0.300 C 
BRANCH  21  23
HETATM   23  C   UNK N   1      43.562  34.028  45.325  0.00  0.00     0.246 C 
HETATM   24  C   UNK N   1      44.316  32.783  44.801  0.00  0.00     0.040 C 
HETATM   25  C   UNK N   1      43.421  31.545  44.691  0.00  0.00     0.028 C 
HETATM   26  C   UNK N   1      42.134  31.932  43.948  0.00  0.00     0.167 C 
HETATM   27  O   UNK N   1      41.459  32.980  44.627  0.00  0.00    -0.389 OA
HETATM   28  C   UNK N   1      42.229  34.171  44.555  0.00  0.00     0.203 C 
ENDBRANCH  21  23
ENDBRANCH  15  17
BRANCH  12  29
HETATM   29  C   UNK N   1      38.957  38.420  49.635  0.00  0.00     0.272 C 
HETATM   30  O   UNK N   1      38.625  39.225  48.775  0.00  0.00    -0.266 OA
HETATM   31  N   UNK N   1      38.030  38.048  50.588  0.00  0.00    -0.343 N 
HETATM   32  C   UNK N   1      38.404  37.172  51.705  0.00  0.00     0.152 C 
HETATM   33  C   UNK N   1      36.731  38.735  50.576  0.00  0.00     0.152 C 
HETATM   34  C   UNK N   1      37.252  36.889  52.675  0.00  0.00     0.187 C 
HETATM   35  O   UNK N   1      36.473  38.049  52.874  0.00  0.00    -0.388 OA
HETATM   36  C   UNK N   1      35.771  38.271  51.670  0.00  0.00     0.187 C 
ENDBRANCH  12  29
BRANCH   1  37
HETATM   37  O   UNK N   1      47.687  38.454  52.405  0.00  0.00    -0.356 OA
HETATM   38  C   UNK N   1      48.593  39.436  52.056  0.00  0.00     0.210 C 
ENDBRANCH   1  37
TORSDOF 4
ENDMDL
MODEL 2
REMARK VINA RESULT:      -8.4      4.822      6.816
REMARK  4 active torsions:
REMARK  status: ('A' for Active; 'I' for Inactive)
REMARK    1  A    between atoms: O_2  and  C_3 
REMARK    2  A    between atoms: C_14  and  C_15 
REMARK       I    between atoms: C_15  and  N_17 
REMARK    3  A    between atoms: N_25  and  C_26 
REMARK    4  A    between atoms: N_30  and  C_31 
ROOT
HETATM    1  C   UNK N   1      44.874  39.984  55.345  0.00  0.00     0.069 A 
HETATM    2  C   UNK N   1      44.125  39.917  54.168  0.00  0.00     0.038 A 
HETATM    3  C   UNK N   1      42.731  40.037  54.197  0.00  0.00     0.018 A 
HETATM    4  C   UNK N   1      42.049  40.228  55.416  0.00  0.00     0.015 A 
HETATM    5  C   UNK N   1      42.822  40.346  56.592  0.00  0.00     0.074 A 
HETATM    6  C   UNK N   1      44.211  40.211  56.565  0.00  0.00     0.061 A 
HETATM    7  S   UNK N   1      41.985  40.709  58.108  0.00  0.00     0.180 S 
HETATM    8  O   UNK N   1      42.891  41.480  59.081  0.00  0.00    -0.222 OA
HETATM    9  O   UNK N   1      41.690  39.408  58.871  0.00  0.00    -0.222 OA
HETATM   10  C   UNK N   1      40.466  41.609  57.786  0.00  0.00     0.189 C 
HETATM   11  C   UNK N   1      39.862  40.993  56.548  0.00  0.00     0.019 A 
HETATM   12  C   UNK N   1      38.514  40.851  56.255  0.00  0.00     0.126 A 
HETATM   13  N   UNK N   1      38.393  40.152  55.110  0.00  0.00    -0.292 N 
ATOM     14  HN  UNK N   1      37.513  39.903  54.659  1.00  0.00     0.187 HD
HETATM   15  N   UNK N   1      39.603  39.836  54.661  0.00  0.00    -0.284 N 
HETATM   16  C   UNK N   1      40.542  40.353  55.506  0.00  0.00     0.072 A 
ENDROOT
BRANCH  15  17
HETATM   17  C   UNK N   1      39.777  38.917  53.520  0.00  0.00     0.137 C 
HETATM   18  C   UNK N   1      38.410  38.412  53.028  0.00  0.00     0.031 C 
HETATM   19  C   UNK N   1      38.599  37.494  51.821  0.00  0.00     0.032 C 
HETATM   20  C   UNK N   1      39.376  38.230  50.719  0.00  0.00     0.273 C 
HETATM   21  N   UNK N   1      40.701  38.653  51.233  0.00  0.00     0.097 N 
HETATM   22  C   UNK N   1      40.517  39.604  52.361  0.00  0.00     0.300 C 
BRANCH  21  23
HETATM   23  C   UNK N   1      41.687  39.184  50.239  0.00  0.00     0.246 C 
HETATM   24  C   UNK N   1      43.162  38.900  50.611  0.00  0.00     0.040 C 
HETATM   25  C   UNK N   1      43.620  37.495  50.207  0.00  0.00     0.028 C 
HETATM   26  C   UNK N   1      43.222  37.249  48.745  0.00  0.00     0.167 C 
HETATM   27  O   UNK N   1      41.818  37.386  48.577  0.00  0.00    -0.389 OA
HETATM   28  C   UNK N   1      41.443  38.741  48.777  0.00  0.00     0.203 C 
ENDBRANCH  21  23
ENDBRANCH  15  17
BRANCH  12  29
HETATM   29  C   UNK N   1      37.376  41.334  57.107  0.00  0.00     0.272 C 
HETATM   30  O   UNK N   1      36.846  40.524  57.855  0.00  0.00    -0.266 OA
HETATM   31  N   UNK N   1      36.868  42.616  57.051  0.00  0.00    -0.343 N 
HETATM   32  C   UNK N   1      37.393  43.597  56.093  0.00  0.00     0.152 C 
HETATM   33  C   UNK N   1      35.644  42.895  57.815  0.00  0.00     0.152 C 
HETATM   34  C   UNK N   1      36.691  44.957  56.159  0.00  0.00     0.187 C 
HETATM   35  O   UNK N   1      35.303  44.791  56.362  0.00  0.00    -0.388 OA
HETATM   36  C   UNK N   1      35.145  44.334  57.688  0.00  0.00     0.187 C 
ENDBRANCH  12  29
BRANCH   1  37
HETATM   37  O   UNK N   1      46.223  39.840  55.268  0.00  0.00    -0.356 OA
HETATM   38  C   UNK N   1      46.948  39.768  54.094  0.00  0.00     0.210 C 
ENDBRANCH   1  37
TORSDOF 4
ENDMDL
MODEL 3
REMARK VINA RESULT:      -8.2      2.663      7.804
REMARK  4 active torsions:
REMARK  status: ('A' for Active; 'I' for Inactive)
REMARK    1  A    between atoms: O_2  and  C_3 
REMARK    2  A    between atoms: C_14  and  C_15 
REMARK       I    between atoms: C_15  and  N_17 
REMARK    3  A    between atoms: N_25  and  C_26 
REMARK    4  A    between atoms: N_30  and  C_31 
ROOT
HETATM    1  C   UNK N   1      40.833  39.526  51.815  0.00  0.00     0.069 A 
HETATM    2  C   UNK N   1      39.869  38.544  52.055  0.00  0.00     0.038 A 
HETATM    3  C   UNK N   1      39.885  37.335  51.350  0.00  0.00     0.018 A 
HETATM    4  C   UNK N   1      40.874  37.080  50.380  0.00  0.00     0.015 A 
HETATM    5  C   UNK N   1      41.873  38.058  50.182  0.00  0.00     0.074 A 
HETATM    6  C   UNK N   1      41.848  39.271  50.875  0.00  0.00     0.061 A 
HETATM    7  S   UNK N   1      43.189  37.695  49.056  0.00  0.00     0.180 S 
HETATM    8  O   UNK N   1      44.481  38.431  49.442  0.00  0.00    -0.222 OA
HETATM    9  O   UNK N   1      42.867  38.271  47.668  0.00  0.00    -0.222 OA
HETATM   10  C   UNK N   1      43.457  35.923  48.957  0.00  0.00     0.189 C 
HETATM   11  C   UNK N   1      42.090  35.285  48.983  0.00  0.00     0.019 A 
HETATM   12  C   UNK N   1      41.695  34.124  48.334  0.00  0.00     0.126 A 
HETATM   13  N   UNK N   1      40.371  33.957  48.520  0.00  0.00    -0.292 N 
ATOM     14  HN  UNK N   1      39.817  33.183  48.155  1.00  0.00     0.187 HD
HETATM   15  N   UNK N   1      39.901  34.960  49.253  0.00  0.00    -0.284 N 
HETATM   16  C   UNK N   1      40.931  35.794  49.580  0.00  0.00     0.072 A 
ENDROOT
BRANCH  15  17
HETATM   17  C   UNK N   1      38.453  35.138  49.465  0.00  0.00     0.137 C 
HETATM   18  C   UNK N   1      37.659  34.254  48.488  0.00  0.00     0.031 C 
HETATM   19  C   UNK N   1      36.160  34.414  48.744  0.00  0.00     0.032 C 
HETATM   20  C   UNK N   1      35.841  34.088  50.210  0.00  0.00     0.273 C 
HETATM   21  N   UNK N   1      36.597  34.998  51.105  0.00  0.00     0.097 N 
HETATM   22  C   UNK N   1      38.056  34.790  50.909  0.00  0.00     0.300 C 
BRANCH  21  23
HETATM   23  C   UNK N   1      36.243  34.982  52.560  0.00  0.00     0.246 C 
HETATM   24  C   UNK N   1      37.061  35.983  53.411  0.00  0.00     0.040 C 
HETATM   25  C   UNK N   1      36.499  37.407  53.363  0.00  0.00     0.028 C 
HETATM   26  C   UNK N   1      34.989  37.348  53.635  0.00  0.00     0.167 C 
HETATM   27  O   UNK N   1      34.338  36.521  52.682  0.00  0.00    -0.389 OA
HETATM   28  C   UNK N   1      34.739  35.172  52.868  0.00  0.00     0.203 C 
ENDBRANCH  21  23
ENDBRANCH  15  17
BRANCH  12  29
HETATM   29  C   UNK N   1      42.579  33.239  47.505  0.00  0.00     0.272 C 
HETATM   30  O   UNK N   1      43.544  32.727  48.058  0.00  0.00    -0.266 OA
HETATM   31  N   UNK N   1      42.393  33.017  46.156  0.00  0.00    -0.343 N 
HETATM   32  C   UNK N   1      41.317  33.691  45.420  0.00  0.00     0.152 C 
HETATM   33  C   UNK N   1      43.436  32.268  45.441  0.00  0.00     0.152 C 
HETATM   34  C   UNK N   1      41.281  33.342  43.928  0.00  0.00     0.187 C 
HETATM   35  O   UNK N   1      42.590  33.251  43.406  0.00  0.00    -0.388 OA
HETATM   36  C   UNK N   1      43.156  32.078  43.951  0.00  0.00     0.187 C 
ENDBRANCH  12  29
BRANCH   1  37
HETATM   37  O   UNK N   1      40.764  40.692  52.509  0.00  0.00    -0.356 OA
HETATM   38  C   UNK N   1      40.485  40.797  53.858  0.00  0.00     0.210 C 
ENDBRANCH   1  37
TORSDOF 4
ENDMDL
MODEL 4
REMARK VINA RESULT:      -8.2      3.482      6.979
REMARK  4 active torsions:
REMARK  status: ('A' for Active; 'I' for Inactive)
REMARK    1  A    between atoms: O_2  and  C_3 
REMARK    2  A    between atoms: C_14  and  C_15 
REMARK       I    between atoms: C_15  and  N_17 
REMARK    3  A    between atoms: N_25  and  C_26 
REMARK    4  A    between atoms: N_30  and  C_31 
ROOT
HETATM    1  C   UNK N   1      35.313  40.399  48.469  0.00  0.00     0.069 A 
HETATM    2  C   UNK N   1      36.256  39.497  47.970  0.00  0.00     0.038 A 
HETATM    3  C   UNK N   1      36.937  38.624  48.826  0.00  0.00     0.018 A 
HETATM    4  C   UNK N   1      36.686  38.634  50.213  0.00  0.00     0.015 A 
HETATM    5  C   UNK N   1      35.694  39.513  50.698  0.00  0.00     0.074 A 
HETATM    6  C   UNK N   1      35.026  40.395  49.846  0.00  0.00     0.061 A 
HETATM    7  S   UNK N   1      35.285  39.445  52.419  0.00  0.00     0.180 S 
HETATM    8  O   UNK N   1      33.828  39.862  52.669  0.00  0.00    -0.222 OA
HETATM    9  O   UNK N   1      36.084  40.507  53.191  0.00  0.00    -0.222 OA
HETATM   10  C   UNK N   1      35.613  37.808  53.076  0.00  0.00     0.189 C 
HETATM   11  C   UNK N   1      36.897  37.342  52.435  0.00  0.00     0.019 A 
HETATM   12  C   UNK N   1      37.872  36.534  53.003  0.00  0.00     0.126 A 
HETATM   13  N   UNK N   1      38.908  36.445  52.147  0.00  0.00    -0.292 N 
ATOM     14  HN  UNK N   1      39.762  35.911  52.307  1.00  0.00     0.187 HD
HETATM   15  N   UNK N   1      38.643  37.163  51.061  0.00  0.00    -0.284 N 
HETATM   16  C   UNK N   1      37.402  37.718  51.185  0.00  0.00     0.072 A 
ENDROOT
BRANCH  15  17
HETATM   17  C   UNK N   1      39.671  37.397  50.030  0.00  0.00     0.137 C 
HETATM   18  C   UNK N   1      40.506  38.640  50.383  0.00  0.00     0.031 C 
HETATM   19  C   UNK N   1      41.595  38.850  49.331  0.00  0.00     0.032 C 
HETATM   20  C   UNK N   1      42.459  37.587  49.212  0.00  0.00     0.273 C 
HETATM   21  N   UNK N   1      41.613  36.431  48.826  0.00  0.00     0.097 N 
HETATM   22  C   UNK N   1      40.600  36.181  49.885  0.00  0.00     0.300 C 
BRANCH  21  23
HETATM   23  C   UNK N   1      42.312  35.164  48.442  0.00  0.00     0.246 C 
HETATM   24  C   UNK N   1      41.375  33.935  48.362  0.00  0.00     0.040 C 
HETATM   25  C   UNK N   1      40.626  33.841  47.029  0.00  0.00     0.028 C 
HETATM   26  C   UNK N   1      41.636  34.011  45.884  0.00  0.00     0.167 C 
HETATM   27  O   UNK N   1      42.313  35.254  45.992  0.00  0.00    -0.389 OA
HETATM   28  C   UNK N   1      43.146  35.247  47.142  0.00  0.00     0.203 C 
ENDBRANCH  21  23
ENDBRANCH  15  17
BRANCH  12  29
HETATM   29  C   UNK N   1      37.813  35.919  54.370  0.00  0.00     0.272 C 
HETATM   30  O   UNK N   1      37.231  34.848  54.484  0.00  0.00    -0.266 OA
HETATM   31  N   UNK N   1      38.328  36.516  55.503  0.00  0.00    -0.343 N 
HETATM   32  C   UNK N   1      38.939  37.849  55.443  0.00  0.00     0.152 C 
HETATM   33  C   UNK N   1      38.044  35.879  56.796  0.00  0.00     0.152 C 
HETATM   34  C   UNK N   1      39.432  38.360  56.801  0.00  0.00     0.187 C 
HETATM   35  O   UNK N   1      38.526  38.007  57.825  0.00  0.00    -0.388 OA
HETATM   36  C   UNK N   1      38.642  36.611  57.996  0.00  0.00     0.187 C 
ENDBRANCH  12  29
BRANCH   1  37
HETATM   37  O   UNK N   1      34.694  41.242  47.602  0.00  0.00    -0.356 OA
HETATM   38  C   UNK N   1      34.275  40.903  46.330  0.00  0.00     0.210 C 
ENDBRANCH   1  37
TORSDOF 4
ENDMDL
MODEL 5
REMARK VINA RESULT:      -7.9      3.751      8.082
REMARK  4 active torsions:
REMARK  status: ('A' for Active; 'I' for Inactive)
REMARK    1  A    between atoms: O_2  and  C_3 
REMARK    2  A    between atoms: C_14  and  C_15 
REMARK       I    between atoms: C_15  and  N_17 
REMARK    3  A    between atoms: N_25  and  C_26 
REMARK    4  A    between atoms: N_30  and  C_31 
ROOT
HETATM    1  C   UNK N   1      42.181  40.492  58.266  0.00  0.00     0.069 A 
HETATM    2  C   UNK N   1      40.997  39.812  57.967  0.00  0.00     0.038 A 
HETATM    3  C   UNK N   1      40.733  39.373  56.666  0.00  0.00     0.018 A 
HETATM    4  C   UNK N   1      41.654  39.606  55.625  0.00  0.00     0.015 A 
HETATM    5  C   UNK N   1      42.868  40.248  55.950  0.00  0.00     0.074 A 
HETATM    6  C   UNK N   1      43.126  40.701  57.246  0.00  0.00     0.061 A 
HETATM    7  S   UNK N   1      44.083  40.435  54.676  0.00  0.00     0.180 S 
HETATM    8  O   UNK N   1      45.506  40.463  55.255  0.00  0.00    -0.222 OA
HETATM    9  O   UNK N   1      43.951  41.819  54.023  0.00  0.00    -0.222 OA
HETATM   10  C   UNK N   1      43.907  39.138  53.448  0.00  0.00     0.189 C 
HETATM   11  C   UNK N   1      42.425  38.932  53.258  0.00  0.00     0.019 A 
HETATM   12  C   UNK N   1      41.772  38.576  52.086  0.00  0.00     0.126 A 
HETATM   13  N   UNK N   1      40.444  38.605  52.308  0.00  0.00    -0.292 N 
ATOM     14  HN  UNK N   1      39.725  38.384  51.619  1.00  0.00     0.187 HD
HETATM   15  N   UNK N   1      40.217  38.969  53.565  0.00  0.00    -0.284 N 
HETATM   16  C   UNK N   1      41.413  39.161  54.197  0.00  0.00     0.072 A 
ENDROOT
BRANCH  15  17
HETATM   17  C   UNK N   1      38.852  39.262  54.041  0.00  0.00     0.137 C 
HETATM   18  C   UNK N   1      38.663  40.778  54.218  0.00  0.00     0.031 C 
HETATM   19  C   UNK N   1      37.234  41.073  54.672  0.00  0.00     0.032 C 
HETATM   20  C   UNK N   1      36.233  40.477  53.672  0.00  0.00     0.273 C 
HETATM   21  N   UNK N   1      36.429  39.010  53.575  0.00  0.00     0.097 N 
HETATM   22  C   UNK N   1      37.796  38.724  53.064  0.00  0.00     0.300 C 
BRANCH  21  23
HETATM   23  C   UNK N   1      35.399  38.226  52.822  0.00  0.00     0.246 C 
HETATM   24  C   UNK N   1      35.923  36.879  52.270  0.00  0.00     0.040 C 
HETATM   25  C   UNK N   1      35.908  35.759  53.314  0.00  0.00     0.028 C 
HETATM   26  C   UNK N   1      34.530  35.734  53.990  0.00  0.00     0.167 C 
HETATM   27  O   UNK N   1      34.245  36.987  54.595  0.00  0.00    -0.389 OA
HETATM   28  C   UNK N   1      34.080  37.976  53.590  0.00  0.00     0.203 C 
ENDBRANCH  21  23
ENDBRANCH  15  17
BRANCH  12  29
HETATM   29  C   UNK N   1      42.432  38.275  50.772  0.00  0.00     0.272 C 
HETATM   30  O   UNK N   1      43.253  39.081  50.354  0.00  0.00    -0.266 OA
HETATM   31  N   UNK N   1      42.125  37.177  49.994  0.00  0.00    -0.343 N 
HETATM   32  C   UNK N   1      41.071  36.238  50.394  0.00  0.00     0.152 C 
HETATM   33  C   UNK N   1      42.725  37.106  48.654  0.00  0.00     0.152 C 
HETATM   34  C   UNK N   1      40.854  35.096  49.395  0.00  0.00     0.187 C 
HETATM   35  O   UNK N   1      40.960  35.568  48.069  0.00  0.00    -0.388 OA
HETATM   36  C   UNK N   1      42.324  35.865  47.858  0.00  0.00     0.187 C 
ENDBRANCH  12  29
BRANCH   1  37
HETATM   37  O   UNK N   1      42.383  40.919  59.541  0.00  0.00    -0.356 OA
HETATM   38  C   UNK N   1      41.418  41.486  60.350  0.00  0.00     0.210 C 
ENDBRANCH   1  37
TORSDOF 4
ENDMDL
MODEL 6
REMARK VINA RESULT:      -7.8      3.691      5.589
REMARK  4 active torsions:
REMARK  status: ('A' for Active; 'I' for Inactive)
REMARK    1  A    between atoms: O_2  and  C_3 
REMARK    2  A    between atoms: C_14  and  C_15 
REMARK       I    between atoms: C_15  and  N_17 
REMARK    3  A    between atoms: N_25  and  C_26 
REMARK    4  A    between atoms: N_30  and  C_31 
ROOT
HETATM    1  C   UNK N   1      44.355  39.880  54.976  0.00  0.00     0.069 A 
HETATM    2  C   UNK N   1      43.894  39.586  53.690  0.00  0.00     0.038 A 
HETATM    3  C   UNK N   1      42.523  39.544  53.413  0.00  0.00     0.018 A 
HETATM    4  C   UNK N   1      41.575  39.798  54.424  0.00  0.00     0.015 A 
HETATM    5  C   UNK N   1      42.054  40.145  55.706  0.00  0.00     0.074 A 
HETATM    6  C   UNK N   1      43.422  40.172  55.987  0.00  0.00     0.061 A 
HETATM    7  S   UNK N   1      40.874  40.587  56.949  0.00  0.00     0.180 S 
HETATM    8  O   UNK N   1      41.471  41.569  57.968  0.00  0.00    -0.222 OA
HETATM    9  O   UNK N   1      40.535  39.361  57.810  0.00  0.00    -0.222 OA
HETATM   10  C   UNK N   1      39.391  41.258  56.194  0.00  0.00     0.189 C 
HETATM   11  C   UNK N   1      39.132  40.432  54.958  0.00  0.00     0.019 A 
HETATM   12  C   UNK N   1      37.900  40.099  54.415  0.00  0.00     0.126 A 
HETATM   13  N   UNK N   1      38.098  39.259  53.381  0.00  0.00    -0.292 N 
ATOM     14  HN  UNK N   1      37.365  38.857  52.797  1.00  0.00     0.187 HD
HETATM   15  N   UNK N   1      39.400  39.035  53.241  0.00  0.00    -0.284 N 
HETATM   16  C   UNK N   1      40.080  39.756  54.181  0.00  0.00     0.072 A 
ENDROOT
BRANCH  15  17
HETATM   17  C   UNK N   1      39.903  38.014  52.304  0.00  0.00     0.137 C 
HETATM   18  C   UNK N   1      38.740  37.159  51.772  0.00  0.00     0.031 C 
HETATM   19  C   UNK N   1      39.266  36.132  50.770  0.00  0.00     0.032 C 
HETATM   20  C   UNK N   1      40.027  36.841  49.642  0.00  0.00     0.273 C 
HETATM   21  N   UNK N   1      41.163  37.611  50.205  0.00  0.00     0.097 N 
HETATM   22  C   UNK N   1      40.646  38.660  51.124  0.00  0.00     0.300 C 
BRANCH  21  23
HETATM   23  C   UNK N   1      42.152  38.185  49.239  0.00  0.00     0.246 C 
HETATM   24  C   UNK N   1      43.265  39.025  49.911  0.00  0.00     0.040 C 
HETATM   25  C   UNK N   1      44.408  38.169  50.464  0.00  0.00     0.028 C 
HETATM   26  C   UNK N   1      44.856  37.184  49.375  0.00  0.00     0.167 C 
HETATM   27  O   UNK N   1      43.772  36.365  48.962  0.00  0.00    -0.389 OA
HETATM   28  C   UNK N   1      42.806  37.156  48.287  0.00  0.00     0.203 C 
ENDBRANCH  21  23
ENDBRANCH  15  17
BRANCH  12  29
HETATM   29  C   UNK N   1      36.564  40.544  54.935  0.00  0.00     0.272 C 
HETATM   30  O   UNK N   1      36.131  41.617  54.536  0.00  0.00    -0.266 OA
HETATM   31  N   UNK N   1      35.832  39.840  55.870  0.00  0.00    -0.343 N 
HETATM   32  C   UNK N   1      36.353  38.603  56.464  0.00  0.00     0.152 C 
HETATM   33  C   UNK N   1      34.627  40.484  56.413  0.00  0.00     0.152 C 
HETATM   34  C   UNK N   1      35.414  37.976  57.499  0.00  0.00     0.187 C 
HETATM   35  O   UNK N   1      34.803  38.975  58.288  0.00  0.00    -0.388 OA
HETATM   36  C   UNK N   1      33.884  39.641  57.448  0.00  0.00     0.187 C 
ENDBRANCH  12  29
BRANCH   1  37
HETATM   37  O   UNK N   1      45.695  39.888  55.202  0.00  0.00    -0.356 OA
HETATM   38  C   UNK N   1      46.665  39.735  54.229  0.00  0.00     0.210 C 
ENDBRANCH   1  37
TORSDOF 4
ENDMDL
MODEL 7
REMARK VINA RESULT:      -7.7      3.626      9.416
REMARK  4 active torsions:
REMARK  status: ('A' for Active; 'I' for Inactive)
REMARK    1  A    between atoms: O_2  and  C_3 
REMARK    2  A    between atoms: C_14  and  C_15 
REMARK       I    between atoms: C_15  and  N_17 
REMARK    3  A    between atoms: N_25  and  C_26 
REMARK    4  A    between atoms: N_30  and  C_31 
ROOT
HETATM    1  C   UNK N   1      37.498  35.961  50.923  0.00  0.00     0.069 A 
HETATM    2  C   UNK N   1      37.718  37.082  51.727  0.00  0.00     0.038 A 
HETATM    3  C   UNK N   1      38.962  37.723  51.738  0.00  0.00     0.018 A 
HETATM    4  C   UNK N   1      40.023  37.253  50.938  0.00  0.00     0.015 A 
HETATM    5  C   UNK N   1      39.772  36.150  50.092  0.00  0.00     0.074 A 
HETATM    6  C   UNK N   1      38.536  35.501  50.092  0.00  0.00     0.061 A 
HETATM    7  S   UNK N   1      41.059  35.630  48.994  0.00  0.00     0.180 S 
HETATM    8  O   UNK N   1      40.488  34.979  47.725  0.00  0.00    -0.222 OA
HETATM    9  O   UNK N   1      41.865  34.488  49.633  0.00  0.00    -0.222 OA
HETATM   10  C   UNK N   1      42.133  37.009  48.589  0.00  0.00     0.189 C 
HETATM   11  C   UNK N   1      42.299  37.806  49.860  0.00  0.00     0.019 A 
HETATM   12  C   UNK N   1      43.422  38.511  50.266  0.00  0.00     0.126 A 
HETATM   13  N   UNK N   1      43.205  38.990  51.506  0.00  0.00    -0.292 N 
ATOM     14  HN  UNK N   1      43.864  39.548  52.048  1.00  0.00     0.187 HD
HETATM   15  N   UNK N   1      41.997  38.617  51.914  0.00  0.00    -0.284 N 
HETATM   16  C   UNK N   1      41.391  37.902  50.921  0.00  0.00     0.072 A 
ENDROOT
BRANCH  15  17
HETATM   17  C   UNK N   1      41.556  38.843  53.303  0.00  0.00     0.137 C 
HETATM   18  C   UNK N   1      42.764  39.164  54.199  0.00  0.00     0.031 C 
HETATM   19  C   UNK N   1      42.293  39.438  55.627  0.00  0.00     0.032 C 
HETATM   20  C   UNK N   1      41.254  40.568  55.629  0.00  0.00     0.273 C 
HETATM   21  N   UNK N   1      40.093  40.187  54.788  0.00  0.00     0.097 N 
HETATM   22  C   UNK N   1      40.539  39.993  53.383  0.00  0.00     0.300 C 
BRANCH  21  23
HETATM   23  C   UNK N   1      38.881  41.065  54.850  0.00  0.00     0.246 C 
HETATM   24  C   UNK N   1      37.604  40.404  54.279  0.00  0.00     0.040 C 
HETATM   25  C   UNK N   1      36.904  39.488  55.288  0.00  0.00     0.028 C 
HETATM   26  C   UNK N   1      36.751  40.244  56.616  0.00  0.00     0.167 C 
HETATM   27  O   UNK N   1      38.018  40.656  57.108  0.00  0.00    -0.389 OA
HETATM   28  C   UNK N   1      38.566  41.644  56.249  0.00  0.00     0.203 C 
ENDBRANCH  21  23
ENDBRANCH  15  17
BRANCH  12  29
HETATM   29  C   UNK N   1      44.694  38.660  49.483  0.00  0.00     0.272 C 
HETATM   30  O   UNK N   1      44.598  38.937  48.294  0.00  0.00    -0.266 OA
HETATM   31  N   UNK N   1      45.951  38.450  50.014  0.00  0.00    -0.343 N 
HETATM   32  C   UNK N   1      46.119  38.010  51.404  0.00  0.00     0.152 C 
HETATM   33  C   UNK N   1      47.091  38.462  49.087  0.00  0.00     0.152 C 
HETATM   34  C   UNK N   1      47.583  37.805  51.810  0.00  0.00     0.187 C 
HETATM   35  O   UNK N   1      48.315  37.219  50.755  0.00  0.00    -0.388 OA
HETATM   36  C   UNK N   1      48.441  38.211  49.758  0.00  0.00     0.187 C 
ENDBRANCH  12  29
BRANCH   1  37
HETATM   37  O   UNK N   1      36.280  35.359  50.962  0.00  0.00    -0.356 OA
HETATM   38  C   UNK N   1      35.280  35.653  51.868  0.00  0.00     0.210 C 
ENDBRANCH   1  37
TORSDOF 4
ENDMDL
MODEL 8
REMARK VINA RESULT:      -7.6      3.480      5.018
REMARK  4 active torsions:
REMARK  status: ('A' for Active; 'I' for Inactive)
REMARK    1  A    between atoms: O_2  and  C_3 
REMARK    2  A    between atoms: C_14  and  C_15 
REMARK       I    between atoms: C_15  and  N_17 
REMARK    3  A    between atoms: N_25  and  C_26 
REMARK    4  A    between atoms: N_30  and  C_31 
ROOT
HETATM    1  C   UNK N   1      40.257  39.445  51.790  0.00  0.00     0.069 A 
HETATM    2  C   UNK N   1      40.698  39.095  50.512  0.00  0.00     0.038 A 
HETATM    3  C   UNK N   1      40.241  37.927  49.891  0.00  0.00     0.018 A 
HETATM    4  C   UNK N   1      39.326  37.076  50.542  0.00  0.00     0.015 A 
HETATM    5  C   UNK N   1      38.850  37.467  51.812  0.00  0.00     0.074 A 
HETATM    6  C   UNK N   1      39.317  38.624  52.438  0.00  0.00     0.061 A 
HETATM    7  S   UNK N   1      37.608  36.468  52.583  0.00  0.00     0.180 S 
HETATM    8  O   UNK N   1      36.713  37.301  53.514  0.00  0.00    -0.222 OA
HETATM    9  O   UNK N   1      38.263  35.464  53.544  0.00  0.00    -0.222 OA
HETATM   10  C   UNK N   1      36.635  35.611  51.343  0.00  0.00     0.189 C 
HETATM   11  C   UNK N   1      37.602  35.178  50.269  0.00  0.00     0.019 A 
HETATM   12  C   UNK N   1      37.532  34.030  49.492  0.00  0.00     0.126 A 
HETATM   13  N   UNK N   1      38.642  33.957  48.733  0.00  0.00    -0.292 N 
ATOM     14  HN  UNK N   1      38.853  33.216  48.064  1.00  0.00     0.187 HD
HETATM   15  N   UNK N   1      39.421  35.001  48.993  0.00  0.00    -0.284 N 
HETATM   16  C   UNK N   1      38.809  35.794  49.921  0.00  0.00     0.072 A 
ENDROOT
BRANCH  15  17
HETATM   17  C   UNK N   1      40.786  35.092  48.442  0.00  0.00     0.137 C 
HETATM   18  C   UNK N   1      41.814  34.626  49.487  0.00  0.00     0.031 C 
HETATM   19  C   UNK N   1      43.221  34.684  48.893  0.00  0.00     0.032 C 
HETATM   20  C   UNK N   1      43.283  33.848  47.607  0.00  0.00     0.273 C 
HETATM   21  N   UNK N   1      42.306  34.368  46.620  0.00  0.00     0.097 N 
HETATM   22  C   UNK N   1      40.929  34.244  47.169  0.00  0.00     0.300 C 
BRANCH  21  23
HETATM   23  C   UNK N   1      42.379  33.824  45.227  0.00  0.00     0.246 C 
HETATM   24  C   UNK N   1      41.093  33.090  44.776  0.00  0.00     0.040 C 
HETATM   25  C   UNK N   1      40.007  34.043  44.270  0.00  0.00     0.028 C 
HETATM   26  C   UNK N   1      40.634  35.011  43.258  0.00  0.00     0.167 C 
HETATM   27  O   UNK N   1      41.701  35.737  43.851  0.00  0.00    -0.389 OA
HETATM   28  C   UNK N   1      42.775  34.856  44.144  0.00  0.00     0.203 C 
ENDBRANCH  21  23
ENDBRANCH  15  17
BRANCH  12  29
HETATM   29  C   UNK N   1      36.436  33.006  49.538  0.00  0.00     0.272 C 
HETATM   30  O   UNK N   1      35.668  32.957  48.587  0.00  0.00    -0.266 OA
HETATM   31  N   UNK N   1      36.220  32.162  50.609  0.00  0.00    -0.343 N 
HETATM   32  C   UNK N   1      37.043  32.253  51.821  0.00  0.00     0.152 C 
HETATM   33  C   UNK N   1      35.007  31.334  50.586  0.00  0.00     0.152 C 
HETATM   34  C   UNK N   1      36.641  31.255  52.912  0.00  0.00     0.187 C 
HETATM   35  O   UNK N   1      35.236  31.130  52.980  0.00  0.00    -0.388 OA
HETATM   36  C   UNK N   1      34.841  30.439  51.814  0.00  0.00     0.187 C 
ENDBRANCH  12  29
BRANCH   1  37
HETATM   37  O   UNK N   1      40.746  40.578  52.361  0.00  0.00    -0.356 OA
HETATM   38  C   UNK N   1      41.845  40.635  53.196  0.00  0.00     0.210 C 
ENDBRANCH   1  37
TORSDOF 4
ENDMDL
MODEL 9
REMARK VINA RESULT:      -7.6      4.261      8.475
REMARK  4 active torsions:
REMARK  status: ('A' for Active; 'I' for Inactive)
REMARK    1  A    between atoms: O_2  and  C_3 
REMARK    2  A    between atoms: C_14  and  C_15 
REMARK       I    between atoms: C_15  and  N_17 
REMARK    3  A    between atoms: N_25  and  C_26 
REMARK    4  A    between atoms: N_30  and  C_31 
ROOT
HETATM    1  C   UNK N   1      44.216  39.709  54.158  0.00  0.00     0.069 A 
HETATM    2  C   UNK N   1      43.129  39.632  55.033  0.00  0.00     0.038 A 
HETATM    3  C   UNK N   1      41.860  39.270  54.569  0.00  0.00     0.018 A 
HETATM    4  C   UNK N   1      41.647  38.973  53.208  0.00  0.00     0.015 A 
HETATM    5  C   UNK N   1      42.763  39.004  52.344  0.00  0.00     0.074 A 
HETATM    6  C   UNK N   1      44.027  39.381  52.803  0.00  0.00     0.061 A 
HETATM    7  S   UNK N   1      42.531  38.513  50.659  0.00  0.00     0.180 S 
HETATM    8  O   UNK N   1      43.817  37.923  50.062  0.00  0.00    -0.222 OA
HETATM    9  O   UNK N   1      42.280  39.749  49.782  0.00  0.00    -0.222 OA
HETATM   10  C   UNK N   1      41.164  37.358  50.527  0.00  0.00     0.189 C 
HETATM   11  C   UNK N   1      40.101  37.846  51.479  0.00  0.00     0.019 A 
HETATM   12  C   UNK N   1      38.726  37.746  51.322  0.00  0.00     0.126 A 
HETATM   13  N   UNK N   1      38.129  38.403  52.336  0.00  0.00    -0.292 N 
ATOM     14  HN  UNK N   1      37.122  38.488  52.472  1.00  0.00     0.187 HD
HETATM   15  N   UNK N   1      39.058  38.922  53.130  0.00  0.00    -0.284 N 
HETATM   16  C   UNK N   1      40.293  38.586  52.651  0.00  0.00     0.072 A 
ENDROOT
BRANCH  15  17
HETATM   17  C   UNK N   1      38.701  39.846  54.222  0.00  0.00     0.137 C 
HETATM   18  C   UNK N   1      37.285  40.407  54.003  0.00  0.00     0.031 C 
HETATM   19  C   UNK N   1      36.908  41.331  55.161  0.00  0.00     0.032 C 
HETATM   20  C   UNK N   1      37.033  40.579  56.493  0.00  0.00     0.273 C 
HETATM   21  N   UNK N   1      38.426  40.101  56.674  0.00  0.00     0.097 N 
HETATM   22  C   UNK N   1      38.768  39.145  55.588  0.00  0.00     0.300 C 
BRANCH  21  23
HETATM   23  C   UNK N   1      38.794  39.545  58.014  0.00  0.00     0.246 C 
HETATM   24  C   UNK N   1      40.243  39.007  58.089  0.00  0.00     0.040 C 
HETATM   25  C   UNK N   1      41.277  40.108  58.341  0.00  0.00     0.028 C 
HETATM   26  C   UNK N   1      40.803  40.967  59.522  0.00  0.00     0.167 C 
HETATM   27  O   UNK N   1      39.527  41.530  59.253  0.00  0.00    -0.389 OA
HETATM   28  C   UNK N   1      38.551  40.500  59.206  0.00  0.00     0.203 C 
ENDBRANCH  21  23
ENDBRANCH  15  17
BRANCH  12  29
HETATM   29  C   UNK N   1      38.020  37.078  50.178  0.00  0.00     0.272 C 
HETATM   30  O   UNK N   1      37.754  37.765  49.200  0.00  0.00    -0.266 OA
HETATM   31  N   UNK N   1      37.614  35.760  50.193  0.00  0.00    -0.343 N 
HETATM   32  C   UNK N   1      37.810  34.922  51.382  0.00  0.00     0.152 C 
HETATM   33  C   UNK N   1      36.782  35.293  49.075  0.00  0.00     0.152 C 
HETATM   34  C   UNK N   1      37.273  33.495  51.223  0.00  0.00     0.187 C 
HETATM   35  O   UNK N   1      36.052  33.499  50.514  0.00  0.00    -0.388 OA
HETATM   36  C   UNK N   1      36.368  33.825  49.177  0.00  0.00     0.187 C 
ENDBRANCH  12  29
BRANCH   1  37
HETATM   37  O   UNK N   1      45.425  40.087  54.651  0.00  0.00    -0.356 OA
HETATM   38  C   UNK N   1      46.647  39.659  54.168  0.00  0.00     0.210 C 
ENDBRANCH   1  37
TORSDOF 4
ENDMDL
