MODEL 1
REMARK VINA RESULT:      -8.8      0.000      0.000
REMARK  5 active torsions:
REMARK  status: ('A' for Active; 'I' for Inactive)
REMARK    1  A    between atoms: C_2  and  C_3 
REMARK       I    between atoms: C_2  and  N_33 
REMARK    2  A    between atoms: N_6  and  C_7 
REMARK    3  A    between atoms: N_10  and  C_11 
REMARK    4  A    between atoms: C_11  and  C_12 
REMARK    5  A    between atoms: C_12  and  C_13 
ROOT
HETATM    1  C   UNK N   1      38.996  34.886  49.651  0.00  0.00     0.126 A 
HETATM    2  N   UNK N   1      39.940  34.250  48.942  0.00  0.00    -0.292 N 
ATOM      3  HN  UNK N   1      39.779  33.433  48.353  1.00  0.00     0.187 HD
HETATM    4  N   UNK N   1      41.112  34.840  49.121  0.00  0.00    -0.284 N 
HETATM    5  C   UNK N   1      40.962  35.872  50.006  0.00  0.00     0.072 A 
HETATM    6  C   UNK N   1      39.594  35.941  50.330  0.00  0.00     0.019 A 
HETATM    7  C   UNK N   1      38.889  36.970  51.176  0.00  0.00     0.189 C 
HETATM    8  S   UNK N   1      39.921  38.433  51.216  0.00  0.00     0.183 S 
HETATM    9  O   UNK N   1      39.533  39.360  50.054  0.00  0.00    -0.222 OA
HETATM   10  O   UNK N   1      39.599  39.298  52.444  0.00  0.00    -0.222 OA
HETATM   11  C   UNK N   1      41.646  38.057  51.106  0.00  0.00     0.110 A 
HETATM   12  C   UNK N   1      42.601  38.960  51.593  0.00  0.00     0.138 A 
HETATM   13  F   UNK N   1      42.221  40.152  52.116  0.00  0.00    -0.204 F 
HETATM   14  C   UNK N   1      43.952  38.629  51.552  0.00  0.00     0.044 A 
HETATM   15  C   UNK N   1      44.350  37.394  51.046  0.00  0.00     0.004 A 
HETATM   16  C   UNK N   1      43.403  36.492  50.550  0.00  0.00     0.015 A 
HETATM   17  C   UNK N   1      42.028  36.817  50.539  0.00  0.00     0.018 A 
ENDROOT
BRANCH   4  18
HETATM   18  C   UNK N   1      42.262  34.428  48.295  0.00  0.00     0.138 C 
HETATM   19  C   UNK N   1      42.938  33.165  48.786  0.00  0.00     0.059 C 
HETATM   20  C   UNK N   1      43.737  32.802  47.544  0.00  0.00     0.274 C 
HETATM   21  N   UNK N   1      42.792  32.993  46.429  0.00  0.00     0.090 N 
HETATM   22  C   UNK N   1      41.825  34.007  46.884  0.00  0.00     0.299 C 
BRANCH  21  23
HETATM   23  C   UNK N   1      43.428  33.298  45.137  0.00  0.00     0.273 C 
BRANCH  23  24
HETATM   24  C   UNK N   1      42.752  32.537  43.979  0.00  0.00     0.035 C 
BRANCH  24  25
HETATM   25  C   UNK N   1      41.925  33.435  43.018  0.00  0.00    -0.009 C 
HETATM   26  C   UNK N   1      42.147  34.944  43.273  0.00  0.00     0.031 C 
HETATM   27  C   UNK N   1      40.933  35.751  42.796  0.00  0.00     0.168 C 
HETATM   28  O   UNK N   1      39.744  35.430  43.520  0.00  0.00    -0.391 OA
HETATM   29  C   UNK N   1      39.674  34.083  43.997  0.00  0.00     0.168 C 
HETATM   30  C   UNK N   1      40.414  33.098  43.085  0.00  0.00     0.031 C 
ENDBRANCH  24  25
ENDBRANCH  23  24
ENDBRANCH  21  23
ENDBRANCH   4  18
BRANCH   1  31
HETATM   31  C   UNK N   1      37.529  34.566  49.580  0.00  0.00     0.272 C 
HETATM   32  O   UNK N   1      36.934  34.859  48.552  0.00  0.00    -0.266 OA
HETATM   33  N   UNK N   1      36.832  33.928  50.589  0.00  0.00    -0.343 N 
HETATM   34  C   UNK N   1      35.494  33.411  50.275  0.00  0.00     0.152 C 
HETATM   35  C   UNK N   1      37.490  33.515  51.835  0.00  0.00     0.152 C 
HETATM   36  C   UNK N   1      34.721  32.921  51.501  0.00  0.00     0.187 C 
HETATM   37  O   UNK N   1      35.557  32.153  52.340  0.00  0.00    -0.388 OA
HETATM   38  C   UNK N   1      36.500  33.040  52.901  0.00  0.00     0.187 C 
ENDBRANCH   1  31
TORSDOF 5
ENDMDL
MODEL 2
REMARK VINA RESULT:      -8.3      2.526      7.373
REMARK  5 active torsions:
REMARK  status: ('A' for Active; 'I' for Inactive)
REMARK    1  A    between atoms: C_2  and  C_3 
REMARK       I    between atoms: C_2  and  N_33 
REMARK    2  A    between atoms: N_6  and  C_7 
REMARK    3  A    between atoms: N_10  and  C_11 
REMARK    4  A    between atoms: C_11  and  C_12 
REMARK    5  A    between atoms: C_12  and  C_13 
ROOT
HETATM    1  C   UNK N   1      40.594  34.941  48.249  0.00  0.00     0.126 A 
HETATM    2  N   UNK N   1      39.437  34.523  48.781  0.00  0.00    -0.292 N 
ATOM      3  HN  UNK N   1      38.880  33.743  48.432  1.00  0.00     0.187 HD
HETATM    4  N   UNK N   1      39.123  35.273  49.826  0.00  0.00    -0.284 N 
HETATM    5  C   UNK N   1      40.070  36.249  49.976  0.00  0.00     0.072 A 
HETATM    6  C   UNK N   1      41.049  36.027  48.989  0.00  0.00     0.019 A 
HETATM    7  C   UNK N   1      42.356  36.753  48.795  0.00  0.00     0.189 C 
HETATM    8  S   UNK N   1      42.776  37.531  50.352  0.00  0.00     0.183 S 
HETATM    9  O   UNK N   1      43.625  36.564  51.191  0.00  0.00    -0.222 OA
HETATM   10  O   UNK N   1      43.741  38.707  50.135  0.00  0.00    -0.222 OA
HETATM   11  C   UNK N   1      41.351  38.009  51.286  0.00  0.00     0.110 A 
HETATM   12  C   UNK N   1      41.441  39.025  52.247  0.00  0.00     0.138 A 
HETATM   13  F   UNK N   1      42.628  39.626  52.508  0.00  0.00    -0.204 F 
HETATM   14  C   UNK N   1      40.301  39.430  52.935  0.00  0.00     0.044 A 
HETATM   15  C   UNK N   1      39.072  38.841  52.652  0.00  0.00     0.004 A 
HETATM   16  C   UNK N   1      38.976  37.820  51.700  0.00  0.00     0.015 A 
HETATM   17  C   UNK N   1      40.123  37.358  51.016  0.00  0.00     0.018 A 
ENDROOT
BRANCH   4  18
HETATM   18  C   UNK N   1      37.988  34.882  50.682  0.00  0.00     0.138 C 
HETATM   19  C   UNK N   1      36.782  35.787  50.538  0.00  0.00     0.059 C 
HETATM   20  C   UNK N   1      35.720  34.902  51.171  0.00  0.00     0.274 C 
HETATM   21  N   UNK N   1      35.968  33.564  50.604  0.00  0.00     0.090 N 
HETATM   22  C   UNK N   1      37.400  33.527  50.260  0.00  0.00     0.299 C 
BRANCH  21  23
HETATM   23  C   UNK N   1      35.519  32.448  51.453  0.00  0.00     0.273 C 
BRANCH  23  24
HETATM   24  C   UNK N   1      36.700  31.786  52.190  0.00  0.00     0.035 C 
BRANCH  24  25
HETATM   25  C   UNK N   1      36.741  32.065  53.717  0.00  0.00    -0.009 C 
HETATM   26  C   UNK N   1      37.482  33.378  54.064  0.00  0.00     0.031 C 
HETATM   27  C   UNK N   1      38.039  33.317  55.491  0.00  0.00     0.168 C 
HETATM   28  O   UNK N   1      39.022  32.291  55.651  0.00  0.00    -0.391 OA
HETATM   29  C   UNK N   1      38.840  31.147  54.811  0.00  0.00     0.168 C 
HETATM   30  C   UNK N   1      37.364  30.879  54.494  0.00  0.00     0.031 C 
ENDBRANCH  24  25
ENDBRANCH  23  24
ENDBRANCH  21  23
ENDBRANCH   4  18
BRANCH   1  31
HETATM   31  C   UNK N   1      41.314  34.238  47.133  0.00  0.00     0.272 C 
HETATM   32  O   UNK N   1      40.959  34.481  45.989  0.00  0.00    -0.266 OA
HETATM   33  N   UNK N   1      42.372  33.370  47.329  0.00  0.00    -0.343 N 
HETATM   34  C   UNK N   1      43.171  32.991  46.156  0.00  0.00     0.152 C 
HETATM   35  C   UNK N   1      42.874  33.061  48.673  0.00  0.00     0.152 C 
HETATM   36  C   UNK N   1      44.173  31.869  46.431  0.00  0.00     0.187 C 
HETATM   37  O   UNK N   1      44.840  32.089  47.656  0.00  0.00    -0.388 OA
HETATM   38  C   UNK N   1      43.887  31.912  48.680  0.00  0.00     0.187 C 
ENDBRANCH   1  31
TORSDOF 5
ENDMDL
MODEL 3
REMARK VINA RESULT:      -8.2      5.694      8.791
REMARK  5 active torsions:
REMARK  status: ('A' for Active; 'I' for Inactive)
REMARK    1  A    between atoms: C_2  and  C_3 
REMARK       I    between atoms: C_2  and  N_33 
REMARK    2  A    between atoms: N_6  and  C_7 
REMARK    3  A    between atoms: N_10  and  C_11 
REMARK    4  A    between atoms: C_11  and  C_12 
REMARK    5  A    between atoms: C_12  and  C_13 
ROOT
HETATM    1  C   UNK N   1      41.422  40.599  56.957  0.00  0.00     0.126 A 
HETATM    2  N   UNK N   1      42.587  40.762  56.314  0.00  0.00    -0.292 N 
ATOM      3  HN  UNK N   1      43.439  41.138  56.731  1.00  0.00     0.187 HD
HETATM    4  N   UNK N   1      42.469  40.361  55.057  0.00  0.00    -0.284 N 
HETATM    5  C   UNK N   1      41.181  39.960  54.836  0.00  0.00     0.072 A 
HETATM    6  C   UNK N   1      40.498  40.070  56.062  0.00  0.00     0.019 A 
HETATM    7  C   UNK N   1      39.087  39.648  56.384  0.00  0.00     0.189 C 
HETATM    8  S   UNK N   1      38.597  38.435  55.161  0.00  0.00     0.183 S 
HETATM    9  O   UNK N   1      38.959  37.030  55.666  0.00  0.00    -0.222 OA
HETATM   10  O   UNK N   1      37.067  38.356  55.049  0.00  0.00    -0.222 OA
HETATM   11  C   UNK N   1      39.362  38.699  53.588  0.00  0.00     0.110 A 
HETATM   12  C   UNK N   1      38.772  38.198  52.420  0.00  0.00     0.138 A 
HETATM   13  F   UNK N   1      37.632  37.467  52.480  0.00  0.00    -0.204 F 
HETATM   14  C   UNK N   1      39.353  38.460  51.183  0.00  0.00     0.044 A 
HETATM   15  C   UNK N   1      40.507  39.236  51.107  0.00  0.00     0.004 A 
HETATM   16  C   UNK N   1      41.106  39.732  52.270  0.00  0.00     0.015 A 
HETATM   17  C   UNK N   1      40.564  39.447  53.543  0.00  0.00     0.018 A 
ENDROOT
BRANCH   4  18
HETATM   18  C   UNK N   1      43.673  40.273  54.211  0.00  0.00     0.138 C 
HETATM   19  C   UNK N   1      44.962  40.542  54.959  0.00  0.00     0.059 C 
HETATM   20  C   UNK N   1      45.960  39.968  53.966  0.00  0.00     0.274 C 
HETATM   21  N   UNK N   1      45.365  38.689  53.542  0.00  0.00     0.090 N 
HETATM   22  C   UNK N   1      43.909  38.841  53.708  0.00  0.00     0.299 C 
BRANCH  21  23
HETATM   23  C   UNK N   1      45.779  38.236  52.203  0.00  0.00     0.273 C 
BRANCH  23  24
HETATM   24  C   UNK N   1      44.598  37.632  51.419  0.00  0.00     0.035 C 
BRANCH  24  25
HETATM   25  C   UNK N   1      44.656  37.873  49.886  0.00  0.00    -0.009 C 
HETATM   26  C   UNK N   1      43.814  39.092  49.442  0.00  0.00     0.031 C 
HETATM   27  C   UNK N   1      43.386  38.943  47.977  0.00  0.00     0.168 C 
HETATM   28  O   UNK N   1      42.532  37.816  47.769  0.00  0.00    -0.391 OA
HETATM   29  C   UNK N   1      42.760  36.716  48.654  0.00  0.00     0.168 C 
HETATM   30  C   UNK N   1      44.225  36.611  49.096  0.00  0.00     0.031 C 
ENDBRANCH  24  25
ENDBRANCH  23  24
ENDBRANCH  21  23
ENDBRANCH   4  18
BRANCH   1  31
HETATM   31  C   UNK N   1      41.232  40.827  58.430  0.00  0.00     0.272 C 
HETATM   32  O   UNK N   1      41.818  40.079  59.199  0.00  0.00    -0.266 OA
HETATM   33  N   UNK N   1      40.469  41.853  58.956  0.00  0.00    -0.343 N 
HETATM   34  C   UNK N   1      40.609  42.144  60.388  0.00  0.00     0.152 C 
HETATM   35  C   UNK N   1      39.767  42.810  58.091  0.00  0.00     0.152 C 
HETATM   36  C   UNK N   1      39.575  43.139  60.918  0.00  0.00     0.187 C 
HETATM   37  O   UNK N   1      39.426  44.222  60.024  0.00  0.00    -0.388 OA
HETATM   38  C   UNK N   1      38.804  43.714  58.865  0.00  0.00     0.187 C 
ENDBRANCH   1  31
TORSDOF 5
ENDMDL
MODEL 4
REMARK VINA RESULT:      -8.0      5.703      8.216
REMARK  5 active torsions:
REMARK  status: ('A' for Active; 'I' for Inactive)
REMARK    1  A    between atoms: C_2  and  C_3 
REMARK       I    between atoms: C_2  and  N_33 
REMARK    2  A    between atoms: N_6  and  C_7 
REMARK    3  A    between atoms: N_10  and  C_11 
REMARK    4  A    between atoms: C_11  and  C_12 
REMARK    5  A    between atoms: C_12  and  C_13 
ROOT
HETATM    1  C   UNK N   1      39.939  40.337  55.368  0.00  0.00     0.126 A 
HETATM    2  N   UNK N   1      41.248  40.594  55.237  0.00  0.00    -0.292 N 
ATOM      3  HN  UNK N   1      41.839  41.006  55.958  1.00  0.00     0.187 HD
HETATM    4  N   UNK N   1      41.660  40.233  54.031  0.00  0.00    -0.284 N 
HETATM    5  C   UNK N   1      40.593  39.763  53.316  0.00  0.00     0.072 A 
HETATM    6  C   UNK N   1      39.479  39.785  54.177  0.00  0.00     0.019 A 
HETATM    7  C   UNK N   1      38.088  39.267  53.913  0.00  0.00     0.189 C 
HETATM    8  S   UNK N   1      38.202  38.072  52.584  0.00  0.00     0.183 S 
HETATM    9  O   UNK N   1      38.436  36.674  53.177  0.00  0.00    -0.222 OA
HETATM   10  O   UNK N   1      36.848  37.905  51.879  0.00  0.00    -0.222 OA
HETATM   11  C   UNK N   1      39.502  38.440  51.442  0.00  0.00     0.110 A 
HETATM   12  C   UNK N   1      39.453  37.948  50.130  0.00  0.00     0.138 A 
HETATM   13  F   UNK N   1      38.435  37.147  49.730  0.00  0.00    -0.204 F 
HETATM   14  C   UNK N   1      40.453  38.291  49.224  0.00  0.00     0.044 A 
HETATM   15  C   UNK N   1      41.486  39.137  49.616  0.00  0.00     0.004 A 
HETATM   16  C   UNK N   1      41.546  39.626  50.926  0.00  0.00     0.015 A 
HETATM   17  C   UNK N   1      40.569  39.261  51.880  0.00  0.00     0.018 A 
ENDROOT
BRANCH   4  18
HETATM   18  C   UNK N   1      43.102  40.250  53.725  0.00  0.00     0.138 C 
HETATM   19  C   UNK N   1      43.754  41.598  53.953  0.00  0.00     0.059 C 
HETATM   20  C   UNK N   1      45.215  41.176  53.973  0.00  0.00     0.274 C 
HETATM   21  N   UNK N   1      45.237  39.964  54.811  0.00  0.00     0.090 N 
HETATM   22  C   UNK N   1      43.898  39.362  54.694  0.00  0.00     0.299 C 
BRANCH  21  23
HETATM   23  C   UNK N   1      46.345  39.040  54.518  0.00  0.00     0.273 C 
BRANCH  23  24
HETATM   24  C   UNK N   1      46.920  39.273  53.107  0.00  0.00     0.035 C 
BRANCH  24  25
HETATM   25  C   UNK N   1      46.750  38.070  52.139  0.00  0.00    -0.009 C 
HETATM   26  C   UNK N   1      47.744  38.115  50.955  0.00  0.00     0.031 C 
HETATM   27  C   UNK N   1      47.182  37.342  49.755  0.00  0.00     0.168 C 
HETATM   28  O   UNK N   1      45.981  37.924  49.244  0.00  0.00    -0.391 OA
HETATM   29  C   UNK N   1      45.173  38.591  50.218  0.00  0.00     0.168 C 
HETATM   30  C   UNK N   1      45.297  37.965  51.613  0.00  0.00     0.031 C 
ENDBRANCH  24  25
ENDBRANCH  23  24
ENDBRANCH  21  23
ENDBRANCH   4  18
BRANCH   1  31
HETATM   31  C   UNK N   1      39.171  40.498  56.650  0.00  0.00     0.272 C 
HETATM   32  O   UNK N   1      38.597  41.561  56.836  0.00  0.00    -0.266 OA
HETATM   33  N   UNK N   1      39.046  39.502  57.600  0.00  0.00    -0.343 N 
HETATM   34  C   UNK N   1      38.033  39.680  58.648  0.00  0.00     0.152 C 
HETATM   35  C   UNK N   1      39.677  38.188  57.424  0.00  0.00     0.152 C 
HETATM   36  C   UNK N   1      38.118  38.642  59.769  0.00  0.00     0.187 C 
HETATM   37  O   UNK N   1      38.310  37.350  59.234  0.00  0.00    -0.388 OA
HETATM   38  C   UNK N   1      39.609  37.322  58.685  0.00  0.00     0.187 C 
ENDBRANCH   1  31
TORSDOF 5
ENDMDL
MODEL 5
REMARK VINA RESULT:      -7.9      5.611      8.615
REMARK  5 active torsions:
REMARK  status: ('A' for Active; 'I' for Inactive)
REMARK    1  A    between atoms: C_2  and  C_3 
REMARK       I    between atoms: C_2  and  N_33 
REMARK    2  A    between atoms: N_6  and  C_7 
REMARK    3  A    between atoms: N_10  and  C_11 
REMARK    4  A    between atoms: C_11  and  C_12 
REMARK    5  A    between atoms: C_12  and  C_13 
ROOT
HETATM    1  C   UNK N   1      39.793  40.403  55.230  0.00  0.00     0.126 A 
HETATM    2  N   UNK N   1      41.101  40.675  55.122  0.00  0.00    -0.292 N 
ATOM      3  HN  UNK N   1      41.665  41.135  55.836  1.00  0.00     0.187 HD
HETATM    4  N   UNK N   1      41.553  40.256  53.949  0.00  0.00    -0.284 N 
HETATM    5  C   UNK N   1      40.514  39.729  53.232  0.00  0.00     0.072 A 
HETATM    6  C   UNK N   1      39.376  39.780  54.059  0.00  0.00     0.019 A 
HETATM    7  C   UNK N   1      38.001  39.225  53.785  0.00  0.00     0.189 C 
HETATM    8  S   UNK N   1      38.172  37.961  52.528  0.00  0.00     0.183 S 
HETATM    9  O   UNK N   1      38.410  36.602  53.202  0.00  0.00    -0.222 OA
HETATM   10  O   UNK N   1      36.841  37.733  51.795  0.00  0.00    -0.222 OA
HETATM   11  C   UNK N   1      39.498  38.289  51.403  0.00  0.00     0.110 A 
HETATM   12  C   UNK N   1      39.495  37.726  50.120  0.00  0.00     0.138 A 
HETATM   13  F   UNK N   1      38.501  36.886  49.736  0.00  0.00    -0.204 F 
HETATM   14  C   UNK N   1      40.514  38.035  49.224  0.00  0.00     0.044 A 
HETATM   15  C   UNK N   1      41.523  38.920  49.598  0.00  0.00     0.004 A 
HETATM   16  C   UNK N   1      41.537  39.479  50.880  0.00  0.00     0.015 A 
HETATM   17  C   UNK N   1      40.539  39.150  51.825  0.00  0.00     0.018 A 
ENDROOT
BRANCH   4  18
HETATM   18  C   UNK N   1      43.003  40.281  53.683  0.00  0.00     0.138 C 
HETATM   19  C   UNK N   1      43.650  41.618  53.976  0.00  0.00     0.059 C 
HETATM   20  C   UNK N   1      45.109  41.193  54.021  0.00  0.00     0.274 C 
HETATM   21  N   UNK N   1      45.108  39.952  54.815  0.00  0.00     0.090 N 
HETATM   22  C   UNK N   1      43.771  39.358  54.640  0.00  0.00     0.299 C 
BRANCH  21  23
HETATM   23  C   UNK N   1      46.222  39.036  54.519  0.00  0.00     0.273 C 
BRANCH  23  24
HETATM   24  C   UNK N   1      46.812  39.296  53.119  0.00  0.00     0.035 C 
BRANCH  24  25
HETATM   25  C   UNK N   1      46.729  38.082  52.153  0.00  0.00    -0.009 C 
HETATM   26  C   UNK N   1      47.773  38.155  51.014  0.00  0.00     0.031 C 
HETATM   27  C   UNK N   1      47.293  37.356  49.796  0.00  0.00     0.168 C 
HETATM   28  O   UNK N   1      46.095  37.891  49.228  0.00  0.00    -0.391 OA
HETATM   29  C   UNK N   1      45.222  38.534  50.161  0.00  0.00     0.168 C 
HETATM   30  C   UNK N   1      45.306  37.922  51.564  0.00  0.00     0.031 C 
ENDBRANCH  24  25
ENDBRANCH  23  24
ENDBRANCH  21  23
ENDBRANCH   4  18
BRANCH   1  31
HETATM   31  C   UNK N   1      38.986  40.620  56.480  0.00  0.00     0.272 C 
HETATM   32  O   UNK N   1      39.118  39.811  57.387  0.00  0.00    -0.266 OA
HETATM   33  N   UNK N   1      38.143  41.699  56.671  0.00  0.00    -0.343 N 
HETATM   34  C   UNK N   1      37.654  41.952  58.032  0.00  0.00     0.152 C 
HETATM   35  C   UNK N   1      37.964  42.727  55.638  0.00  0.00     0.152 C 
HETATM   36  C   UNK N   1      36.564  43.022  58.106  0.00  0.00     0.187 C 
HETATM   37  O   UNK N   1      36.902  44.129  57.297  0.00  0.00    -0.388 OA
HETATM   38  C   UNK N   1      36.823  43.697  55.957  0.00  0.00     0.187 C 
ENDBRANCH   1  31
TORSDOF 5
ENDMDL
MODEL 6
REMARK VINA RESULT:      -7.9      4.866      8.629
REMARK  5 active torsions:
REMARK  status: ('A' for Active; 'I' for Inactive)
REMARK    1  A    between atoms: C_2  and  C_3 
REMARK       I    between atoms: C_2  and  N_33 
REMARK    2  A    between atoms: N_6  and  C_7 
REMARK    3  A    between atoms: N_10  and  C_11 
REMARK    4  A    between atoms: C_11  and  C_12 
REMARK    5  A    between atoms: C_12  and  C_13 
ROOT
HETATM    1  C   UNK N   1      40.871  39.045  51.607  0.00  0.00     0.126 A 
HETATM    2  N   UNK N   1      40.706  39.208  52.928  0.00  0.00    -0.292 N 
ATOM      3  HN  UNK N   1      39.809  39.341  53.394  1.00  0.00     0.187 HD
HETATM    4  N   UNK N   1      41.881  39.169  53.537  0.00  0.00    -0.284 N 
HETATM    5  C   UNK N   1      42.866  39.022  52.600  0.00  0.00     0.072 A 
HETATM    6  C   UNK N   1      42.230  38.901  51.350  0.00  0.00     0.019 A 
HETATM    7  C   UNK N   1      42.857  38.609  50.010  0.00  0.00     0.189 C 
HETATM    8  S   UNK N   1      44.444  37.837  50.316  0.00  0.00     0.183 S 
HETATM    9  O   UNK N   1      44.262  36.312  50.381  0.00  0.00    -0.222 OA
HETATM   10  O   UNK N   1      45.376  38.002  49.107  0.00  0.00    -0.222 OA
HETATM   11  C   UNK N   1      45.200  38.394  51.815  0.00  0.00     0.110 A 
HETATM   12  C   UNK N   1      46.587  38.302  51.986  0.00  0.00     0.138 A 
HETATM   13  F   UNK N   1      47.366  37.744  51.026  0.00  0.00    -0.204 F 
HETATM   14  C   UNK N   1      47.177  38.795  53.147  0.00  0.00     0.044 A 
HETATM   15  C   UNK N   1      46.390  39.396  54.125  0.00  0.00     0.004 A 
HETATM   16  C   UNK N   1      45.002  39.484  53.965  0.00  0.00     0.015 A 
HETATM   17  C   UNK N   1      44.371  38.954  52.817  0.00  0.00     0.018 A 
ENDROOT
BRANCH   4  18
HETATM   18  C   UNK N   1      41.931  39.140  55.011  0.00  0.00     0.138 C 
HETATM   19  C   UNK N   1      42.170  40.499  55.636  0.00  0.00     0.059 C 
HETATM   20  C   UNK N   1      41.744  40.202  57.065  0.00  0.00     0.274 C 
HETATM   21  N   UNK N   1      40.493  39.436  56.926  0.00  0.00     0.090 N 
HETATM   22  C   UNK N   1      40.569  38.765  55.616  0.00  0.00     0.299 C 
BRANCH  21  23
HETATM   23  C   UNK N   1      40.201  38.534  58.052  0.00  0.00     0.273 C 
BRANCH  23  24
HETATM   24  C   UNK N   1      38.689  38.466  58.346  0.00  0.00     0.035 C 
BRANCH  24  25
HETATM   25  C   UNK N   1      38.006  37.148  57.890  0.00  0.00    -0.009 C 
HETATM   26  C   UNK N   1      39.016  36.107  57.353  0.00  0.00     0.031 C 
HETATM   27  C   UNK N   1      38.326  35.144  56.380  0.00  0.00     0.168 C 
HETATM   28  O   UNK N   1      37.831  35.805  55.213  0.00  0.00    -0.391 OA
HETATM   29  C   UNK N   1      37.431  37.164  55.416  0.00  0.00     0.168 C 
HETATM   30  C   UNK N   1      36.904  37.416  56.834  0.00  0.00     0.031 C 
ENDBRANCH  24  25
ENDBRANCH  23  24
ENDBRANCH  21  23
ENDBRANCH   4  18
BRANCH   1  31
HETATM   31  C   UNK N   1      39.741  38.905  50.626  0.00  0.00     0.272 C 
HETATM   32  O   UNK N   1      39.618  39.775  49.777  0.00  0.00    -0.266 OA
HETATM   33  N   UNK N   1      38.869  37.832  50.608  0.00  0.00    -0.343 N 
HETATM   34  C   UNK N   1      38.012  37.668  49.428  0.00  0.00     0.152 C 
HETATM   35  C   UNK N   1      38.982  36.734  51.576  0.00  0.00     0.152 C 
HETATM   36  C   UNK N   1      36.937  36.593  49.593  0.00  0.00     0.187 C 
HETATM   37  O   UNK N   1      37.480  35.437  50.195  0.00  0.00    -0.388 OA
HETATM   38  C   UNK N   1      37.789  35.776  51.528  0.00  0.00     0.187 C 
ENDBRANCH   1  31
TORSDOF 5
ENDMDL
MODEL 7
REMARK VINA RESULT:      -7.8      5.047      7.748
REMARK  5 active torsions:
REMARK  status: ('A' for Active; 'I' for Inactive)
REMARK    1  A    between atoms: C_2  and  C_3 
REMARK       I    between atoms: C_2  and  N_33 
REMARK    2  A    between atoms: N_6  and  C_7 
REMARK    3  A    between atoms: N_10  and  C_11 
REMARK    4  A    between atoms: C_11  and  C_12 
REMARK    5  A    between atoms: C_12  and  C_13 
ROOT
HETATM    1  C   UNK N   1      39.204  40.274  55.546  0.00  0.00     0.126 A 
HETATM    2  N   UNK N   1      40.443  40.596  55.148  0.00  0.00    -0.292 N 
ATOM      3  HN  UNK N   1      41.094  41.179  55.673  1.00  0.00     0.187 HD
HETATM    4  N   UNK N   1      40.697  40.045  53.971  0.00  0.00    -0.284 N 
HETATM    5  C   UNK N   1      39.585  39.371  53.544  0.00  0.00     0.072 A 
HETATM    6  C   UNK N   1      38.623  39.476  54.567  0.00  0.00     0.019 A 
HETATM    7  C   UNK N   1      37.269  38.817  54.642  0.00  0.00     0.189 C 
HETATM    8  S   UNK N   1      37.296  37.404  53.542  0.00  0.00     0.183 S 
HETATM    9  O   UNK N   1      37.762  36.164  54.321  0.00  0.00    -0.222 OA
HETATM   10  O   UNK N   1      35.873  37.008  53.122  0.00  0.00    -0.222 OA
HETATM   11  C   UNK N   1      38.356  37.642  52.146  0.00  0.00     0.110 A 
HETATM   12  C   UNK N   1      38.155  36.909  50.969  0.00  0.00     0.138 A 
HETATM   13  F   UNK N   1      37.174  35.974  50.897  0.00  0.00    -0.204 F 
HETATM   14  C   UNK N   1      38.959  37.145  49.859  0.00  0.00     0.044 A 
HETATM   15  C   UNK N   1      39.948  38.123  49.912  0.00  0.00     0.004 A 
HETATM   16  C   UNK N   1      40.161  38.854  51.087  0.00  0.00     0.015 A 
HETATM   17  C   UNK N   1      39.389  38.607  52.244  0.00  0.00     0.018 A 
ENDROOT
BRANCH   4  18
HETATM   18  C   UNK N   1      42.064  40.108  53.422  0.00  0.00     0.138 C 
HETATM   19  C   UNK N   1      42.985  41.027  54.196  0.00  0.00     0.059 C 
HETATM   20  C   UNK N   1      44.329  40.545  53.672  0.00  0.00     0.274 C 
HETATM   21  N   UNK N   1      44.227  39.075  53.695  0.00  0.00     0.090 N 
HETATM   22  C   UNK N   1      42.793  38.763  53.561  0.00  0.00     0.299 C 
BRANCH  21  23
HETATM   23  C   UNK N   1      45.090  38.388  52.720  0.00  0.00     0.273 C 
BRANCH  23  24
HETATM   24  C   UNK N   1      44.265  37.547  51.726  0.00  0.00     0.035 C 
BRANCH  24  25
HETATM   25  C   UNK N   1      44.503  37.902  50.233  0.00  0.00    -0.009 C 
HETATM   26  C   UNK N   1      43.583  39.043  49.738  0.00  0.00     0.031 C 
HETATM   27  C   UNK N   1      43.384  38.950  48.220  0.00  0.00     0.168 C 
HETATM   28  O   UNK N   1      42.716  37.748  47.829  0.00  0.00    -0.391 OA
HETATM   29  C   UNK N   1      42.957  36.622  48.677  0.00  0.00     0.168 C 
HETATM   30  C   UNK N   1      44.348  36.659  49.322  0.00  0.00     0.031 C 
ENDBRANCH  24  25
ENDBRANCH  23  24
ENDBRANCH  21  23
ENDBRANCH   4  18
BRANCH   1  31
HETATM   31  C   UNK N   1      38.633  40.619  56.893  0.00  0.00     0.272 C 
HETATM   32  O   UNK N   1      37.944  41.625  56.975  0.00  0.00    -0.266 OA
HETATM   33  N   UNK N   1      38.811  39.843  58.023  0.00  0.00    -0.343 N 
HETATM   34  C   UNK N   1      37.962  40.127  59.187  0.00  0.00     0.152 C 
HETATM   35  C   UNK N   1      39.596  38.603  57.989  0.00  0.00     0.152 C 
HETATM   36  C   UNK N   1      38.377  39.371  60.450  0.00  0.00     0.187 C 
HETATM   37  O   UNK N   1      38.674  38.024  60.147  0.00  0.00    -0.388 OA
HETATM   38  C   UNK N   1      39.859  38.027  59.383  0.00  0.00     0.187 C 
ENDBRANCH   1  31
TORSDOF 5
ENDMDL
MODEL 8
REMARK VINA RESULT:      -7.8      3.758      7.546
REMARK  5 active torsions:
REMARK  status: ('A' for Active; 'I' for Inactive)
REMARK    1  A    between atoms: C_2  and  C_3 
REMARK       I    between atoms: C_2  and  N_33 
REMARK    2  A    between atoms: N_6  and  C_7 
REMARK    3  A    between atoms: N_10  and  C_11 
REMARK    4  A    between atoms: C_11  and  C_12 
REMARK    5  A    between atoms: C_12  and  C_13 
ROOT
HETATM    1  C   UNK N   1      38.112  34.898  49.893  0.00  0.00     0.126 A 
HETATM    2  N   UNK N   1      37.529  35.887  50.586  0.00  0.00    -0.292 N 
ATOM      3  HN  UNK N   1      36.607  35.835  51.019  1.00  0.00     0.187 HD
HETATM    4  N   UNK N   1      38.329  36.942  50.625  0.00  0.00    -0.284 N 
HETATM    5  C   UNK N   1      39.459  36.674  49.904  0.00  0.00     0.072 A 
HETATM    6  C   UNK N   1      39.355  35.343  49.455  0.00  0.00     0.019 A 
HETATM    7  C   UNK N   1      40.383  34.527  48.714  0.00  0.00     0.189 C 
HETATM    8  S   UNK N   1      41.982  35.276  49.014  0.00  0.00     0.183 S 
HETATM    9  O   UNK N   1      42.615  34.642  50.262  0.00  0.00    -0.222 OA
HETATM   10  O   UNK N   1      42.982  34.894  47.912  0.00  0.00    -0.222 OA
HETATM   11  C   UNK N   1      41.886  37.028  49.241  0.00  0.00     0.110 A 
HETATM   12  C   UNK N   1      43.006  37.837  49.003  0.00  0.00     0.138 A 
HETATM   13  F   UNK N   1      44.190  37.286  48.640  0.00  0.00    -0.204 F 
HETATM   14  C   UNK N   1      42.902  39.219  49.131  0.00  0.00     0.044 A 
HETATM   15  C   UNK N   1      41.683  39.796  49.473  0.00  0.00     0.004 A 
HETATM   16  C   UNK N   1      40.562  38.995  49.720  0.00  0.00     0.015 A 
HETATM   17  C   UNK N   1      40.647  37.587  49.640  0.00  0.00     0.018 A 
ENDROOT
BRANCH   4  18
HETATM   18  C   UNK N   1      37.976  38.084  51.489  0.00  0.00     0.138 C 
HETATM   19  C   UNK N   1      36.484  38.285  51.649  0.00  0.00     0.059 C 
HETATM   20  C   UNK N   1      36.477  39.194  52.868  0.00  0.00     0.274 C 
HETATM   21  N   UNK N   1      37.450  38.582  53.790  0.00  0.00     0.090 N 
HETATM   22  C   UNK N   1      38.407  37.847  52.945  0.00  0.00     0.299 C 
BRANCH  21  23
HETATM   23  C   UNK N   1      38.074  39.525  54.734  0.00  0.00     0.273 C 
BRANCH  23  24
HETATM   24  C   UNK N   1      39.523  39.119  55.065  0.00  0.00     0.035 C 
BRANCH  24  25
HETATM   25  C   UNK N   1      40.570  40.247  54.850  0.00  0.00    -0.009 C 
HETATM   26  C   UNK N   1      41.143  40.263  53.414  0.00  0.00     0.031 C 
HETATM   27  C   UNK N   1      42.534  40.908  53.400  0.00  0.00     0.168 C 
HETATM   28  O   UNK N   1      43.488  40.166  54.165  0.00  0.00    -0.391 OA
HETATM   29  C   UNK N   1      42.944  39.456  55.281  0.00  0.00     0.168 C 
HETATM   30  C   UNK N   1      41.720  40.157  55.884  0.00  0.00     0.031 C 
ENDBRANCH  24  25
ENDBRANCH  23  24
ENDBRANCH  21  23
ENDBRANCH   4  18
BRANCH   1  31
HETATM   31  C   UNK N   1      37.546  33.512  49.761  0.00  0.00     0.272 C 
HETATM   32  O   UNK N   1      37.703  32.744  50.699  0.00  0.00    -0.266 OA
HETATM   33  N   UNK N   1      36.827  33.079  48.662  0.00  0.00    -0.343 N 
HETATM   34  C   UNK N   1      36.081  31.821  48.787  0.00  0.00     0.152 C 
HETATM   35  C   UNK N   1      36.570  33.959  47.516  0.00  0.00     0.152 C 
HETATM   36  C   UNK N   1      35.502  31.315  47.465  0.00  0.00     0.187 C 
HETATM   37  O   UNK N   1      34.913  32.376  46.743  0.00  0.00    -0.388 OA
HETATM   38  C   UNK N   1      35.964  33.217  46.321  0.00  0.00     0.187 C 
ENDBRANCH   1  31
TORSDOF 5
ENDMDL
MODEL 9
REMARK VINA RESULT:      -7.8      3.343      6.564
REMARK  5 active torsions:
REMARK  status: ('A' for Active; 'I' for Inactive)
REMARK    1  A    between atoms: C_2  and  C_3 
REMARK       I    between atoms: C_2  and  N_33 
REMARK    2  A    between atoms: N_6  and  C_7 
REMARK    3  A    between atoms: N_10  and  C_11 
REMARK    4  A    between atoms: C_11  and  C_12 
REMARK    5  A    between atoms: C_12  and  C_13 
ROOT
HETATM    1  C   UNK N   1      40.829  39.005  51.766  0.00  0.00     0.126 A 
HETATM    2  N   UNK N   1      41.400  38.379  50.727  0.00  0.00    -0.292 N 
ATOM      3  HN  UNK N   1      42.309  38.613  50.329  1.00  0.00     0.187 HD
HETATM    4  N   UNK N   1      40.608  37.410  50.293  0.00  0.00    -0.284 N 
HETATM    5  C   UNK N   1      39.455  37.411  51.030  0.00  0.00     0.072 A 
HETATM    6  C   UNK N   1      39.596  38.411  52.012  0.00  0.00     0.019 A 
HETATM    7  C   UNK N   1      38.657  38.743  53.143  0.00  0.00     0.189 C 
HETATM    8  S   UNK N   1      37.634  37.302  53.434  0.00  0.00     0.183 S 
HETATM    9  O   UNK N   1      38.312  36.399  54.477  0.00  0.00    -0.222 OA
HETATM   10  O   UNK N   1      36.327  37.690  54.140  0.00  0.00    -0.222 OA
HETATM   11  C   UNK N   1      37.338  36.364  51.963  0.00  0.00     0.110 A 
HETATM   12  C   UNK N   1      36.218  35.526  51.870  0.00  0.00     0.138 A 
HETATM   13  F   UNK N   1      35.370  35.387  52.920  0.00  0.00    -0.204 F 
HETATM   14  C   UNK N   1      35.964  34.837  50.688  0.00  0.00     0.044 A 
HETATM   15  C   UNK N   1      36.811  34.997  49.595  0.00  0.00     0.004 A 
HETATM   16  C   UNK N   1      37.936  35.825  49.683  0.00  0.00     0.015 A 
HETATM   17  C   UNK N   1      38.243  36.504  50.884  0.00  0.00     0.018 A 
ENDROOT
BRANCH   4  18
HETATM   18  C   UNK N   1      41.109  36.466  49.277  0.00  0.00     0.138 C 
HETATM   19  C   UNK N   1      42.356  36.949  48.565  0.00  0.00     0.059 C 
HETATM   20  C   UNK N   1      42.826  35.638  47.954  0.00  0.00     0.274 C 
HETATM   21  N   UNK N   1      42.682  34.652  49.039  0.00  0.00     0.090 N 
HETATM   22  C   UNK N   1      41.612  35.161  49.914  0.00  0.00     0.299 C 
BRANCH  21  23
HETATM   23  C   UNK N   1      42.484  33.266  48.583  0.00  0.00     0.273 C 
BRANCH  23  24
HETATM   24  C   UNK N   1      43.699  32.380  48.922  0.00  0.00     0.035 C 
BRANCH  24  25
HETATM   25  C   UNK N   1      44.478  31.858  47.684  0.00  0.00    -0.009 C 
HETATM   26  C   UNK N   1      45.905  32.448  47.587  0.00  0.00     0.031 C 
HETATM   27  C   UNK N   1      46.391  32.436  46.132  0.00  0.00     0.168 C 
HETATM   28  O   UNK N   1      45.595  33.266  45.283  0.00  0.00    -0.391 OA
HETATM   29  C   UNK N   1      44.223  33.382  45.669  0.00  0.00     0.168 C 
HETATM   30  C   UNK N   1      43.701  32.123  46.371  0.00  0.00     0.031 C 
ENDBRANCH  24  25
ENDBRANCH  23  24
ENDBRANCH  21  23
ENDBRANCH   4  18
BRANCH   1  31
HETATM   31  C   UNK N   1      41.505  40.067  52.586  0.00  0.00     0.272 C 
HETATM   32  O   UNK N   1      40.877  41.091  52.816  0.00  0.00    -0.266 OA
HETATM   33  N   UNK N   1      42.771  39.932  53.124  0.00  0.00    -0.343 N 
HETATM   34  C   UNK N   1      43.188  40.903  54.144  0.00  0.00     0.152 C 
HETATM   35  C   UNK N   1      43.567  38.716  52.920  0.00  0.00     0.152 C 
HETATM   36  C   UNK N   1      44.668  40.807  54.517  0.00  0.00     0.187 C 
HETATM   37  O   UNK N   1      45.052  39.458  54.678  0.00  0.00    -0.388 OA
HETATM   38  C   UNK N   1      45.014  38.865  53.399  0.00  0.00     0.187 C 
ENDBRANCH   1  31
TORSDOF 5
ENDMDL
