MODEL 1
REMARK VINA RESULT:      -8.9      0.000      0.000
REMARK  5 active torsions:
REMARK  status: ('A' for Active; 'I' for Inactive)
REMARK    1  A    between atoms: C_2  and  C_3 
REMARK       I    between atoms: C_2  and  N_35 
REMARK    2  A    between atoms: C_3  and  C_4 
REMARK    3  A    between atoms: C_4  and  N_5 
REMARK    4  A    between atoms: C_9  and  N_10 
REMARK    5  A    between atoms: C_13  and  C_14 
REMARK       I    between atoms: C_14  and  N_16 
ROOT
HETATM    1  N   UNK N   1      41.263  39.481  52.565  0.00  0.00    -0.284 N 
HETATM    2  N   UNK N   1      42.006  39.143  51.514  0.00  0.00    -0.292 N 
ATOM      3  HN  UNK N   1      43.010  39.301  51.434  1.00  0.00     0.187 HD
HETATM    4  C   UNK N   1      41.238  38.565  50.572  0.00  0.00     0.126 A 
HETATM    5  C   UNK N   1      39.927  38.538  51.033  0.00  0.00     0.019 A 
HETATM    6  C   UNK N   1      39.963  39.106  52.317  0.00  0.00     0.072 A 
HETATM    7  C   UNK N   1      38.766  39.098  53.263  0.00  0.00     0.014 A 
HETATM    8  C   UNK N   1      38.657  39.937  54.382  0.00  0.00     0.015 A 
HETATM    9  C   UNK N   1      37.555  39.858  55.243  0.00  0.00     0.001 A 
HETATM   10  C   UNK N   1      36.540  38.934  55.005  0.00  0.00     0.002 A 
HETATM   11  C   UNK N   1      36.614  38.093  53.900  0.00  0.00     0.024 A 
HETATM   12  C   UNK N   1      37.709  38.173  53.036  0.00  0.00     0.072 A 
HETATM   13  S   UNK N   1      37.795  37.113  51.620  0.00  0.00     0.180 S 
HETATM   14  O   UNK N   1      38.451  35.770  51.978  0.00  0.00    -0.222 OA
HETATM   15  O   UNK N   1      36.396  36.715  51.127  0.00  0.00    -0.222 OA
HETATM   16  C   UNK N   1      38.706  37.967  50.354  0.00  0.00     0.189 C 
ENDROOT
BRANCH   1  17
HETATM   17  C   UNK N   1      41.949  39.993  53.777  0.00  0.00     0.126 C 
HETATM   18  C   UNK N   1      41.803  39.129  55.060  0.00  0.00     0.030 C 
HETATM   19  C   UNK N   1      42.562  39.867  56.176  0.00  0.00     0.022 C 
HETATM   20  C   UNK N   1      44.076  39.924  55.864  0.00  0.00     0.117 C 
HETATM   21  N   UNK N   1      44.349  39.892  54.413  0.00  0.00    -0.410 N 
HETATM   22  C   UNK N   1      43.376  40.556  53.528  0.00  0.00     0.144 C 
BRANCH  21  23
HETATM   23  C   UNK N   1      45.755  39.903  53.962  0.00  0.00     0.126 C 
BRANCH  23  24
HETATM   24  C   UNK N   1      46.351  38.549  53.526  0.00  0.00     0.122 C 
BRANCH  24  25
HETATM   25  C   UNK N   1      47.139  38.551  52.231  0.00  0.00     0.221 C 
HETATM   26  O   UNK N   1      48.344  38.753  52.237  0.00  0.00    -0.273 OA
HETATM   27  N   UNK N   1      46.515  38.235  51.063  0.00  0.00    -0.341 N 
HETATM   28  C   UNK N   1      45.158  37.916  50.811  0.00  0.00     0.206 A 
HETATM   29  C   UNK N   1      47.050  38.070  49.764  0.00  0.00     0.206 A 
HETATM   30  C   UNK N   1      45.602  37.677  49.335  0.00  0.00     0.275 A 
HETATM   31  F   UNK N   1      45.497  36.347  48.961  0.00  0.00    -0.203 F 
HETATM   32  F   UNK N   1      45.033  38.564  48.441  0.00  0.00    -0.203 F 
ENDBRANCH  24  25
ENDBRANCH  23  24
ENDBRANCH  21  23
ENDBRANCH   1  17
BRANCH   4  33
HETATM   33  C   UNK N   1      41.759  37.960  49.293  0.00  0.00     0.272 C 
HETATM   34  O   UNK N   1      41.817  38.681  48.310  0.00  0.00    -0.266 OA
HETATM   35  N   UNK N   1      42.128  36.636  49.156  0.00  0.00    -0.343 N 
HETATM   36  C   UNK N   1      42.317  36.124  47.790  0.00  0.00     0.152 C 
HETATM   37  C   UNK N   1      42.050  35.693  50.275  0.00  0.00     0.152 C 
HETATM   38  C   UNK N   1      42.929  34.725  47.735  0.00  0.00     0.187 C 
HETATM   39  O   UNK N   1      42.327  33.883  48.693  0.00  0.00    -0.388 OA
HETATM   40  C   UNK N   1      42.725  34.354  49.963  0.00  0.00     0.187 C 
ENDBRANCH   4  33
TORSDOF 5
ENDMDL
MODEL 2
REMARK VINA RESULT:      -8.7      4.167      7.391
REMARK  5 active torsions:
REMARK  status: ('A' for Active; 'I' for Inactive)
REMARK    1  A    between atoms: C_2  and  C_3 
REMARK       I    between atoms: C_2  and  N_35 
REMARK    2  A    between atoms: C_3  and  C_4 
REMARK    3  A    between atoms: C_4  and  N_5 
REMARK    4  A    between atoms: C_9  and  N_10 
REMARK    5  A    between atoms: C_13  and  C_14 
REMARK       I    between atoms: C_14  and  N_16 
ROOT
HETATM    1  N   UNK N   1      40.146  38.838  53.460  0.00  0.00    -0.284 N 
HETATM    2  N   UNK N   1      40.422  38.587  52.183  0.00  0.00    -0.292 N 
ATOM      3  HN  UNK N   1      39.725  38.442  51.453  1.00  0.00     0.187 HD
HETATM    4  C   UNK N   1      41.754  38.552  51.996  0.00  0.00     0.126 A 
HETATM    5  C   UNK N   1      42.373  38.780  53.219  0.00  0.00     0.019 A 
HETATM    6  C   UNK N   1      41.332  38.984  54.141  0.00  0.00     0.072 A 
HETATM    7  C   UNK N   1      41.570  39.458  55.571  0.00  0.00     0.014 A 
HETATM    8  C   UNK N   1      40.618  39.341  56.595  0.00  0.00     0.015 A 
HETATM    9  C   UNK N   1      40.872  39.833  57.881  0.00  0.00     0.001 A 
HETATM   10  C   UNK N   1      42.084  40.457  58.171  0.00  0.00     0.002 A 
HETATM   11  C   UNK N   1      43.051  40.582  57.180  0.00  0.00     0.024 A 
HETATM   12  C   UNK N   1      42.804  40.088  55.897  0.00  0.00     0.072 A 
HETATM   13  S   UNK N   1      44.043  40.233  54.641  0.00  0.00     0.180 S 
HETATM   14  O   UNK N   1      43.929  41.580  53.909  0.00  0.00    -0.222 OA
HETATM   15  O   UNK N   1      45.456  40.265  55.243  0.00  0.00    -0.222 OA
HETATM   16  C   UNK N   1      43.849  38.865  53.522  0.00  0.00     0.189 C 
ENDROOT
BRANCH   1  17
HETATM   17  C   UNK N   1      38.732  39.071  53.843  0.00  0.00     0.126 C 
HETATM   18  C   UNK N   1      38.359  40.531  54.222  0.00  0.00     0.030 C 
HETATM   19  C   UNK N   1      36.869  40.519  54.606  0.00  0.00     0.022 C 
HETATM   20  C   UNK N   1      35.991  40.151  53.386  0.00  0.00     0.117 C 
HETATM   21  N   UNK N   1      36.712  39.305  52.414  0.00  0.00    -0.410 N 
HETATM   22  C   UNK N   1      37.688  38.342  52.951  0.00  0.00     0.144 C 
BRANCH  21  23
HETATM   23  C   UNK N   1      36.012  38.904  51.177  0.00  0.00     0.126 C 
BRANCH  23  24
HETATM   24  C   UNK N   1      35.978  39.942  50.036  0.00  0.00     0.122 C 
BRANCH  24  25
HETATM   25  C   UNK N   1      36.086  39.391  48.629  0.00  0.00     0.221 C 
HETATM   26  O   UNK N   1      36.767  38.402  48.399  0.00  0.00    -0.273 OA
HETATM   27  N   UNK N   1      35.347  39.945  47.629  0.00  0.00    -0.341 N 
HETATM   28  C   UNK N   1      34.457  41.047  47.657  0.00  0.00     0.206 A 
HETATM   29  C   UNK N   1      35.200  39.547  46.280  0.00  0.00     0.206 A 
HETATM   30  C   UNK N   1      34.176  40.717  46.159  0.00  0.00     0.275 A 
HETATM   31  F   UNK N   1      32.880  40.276  45.949  0.00  0.00    -0.203 F 
HETATM   32  F   UNK N   1      34.581  41.716  45.293  0.00  0.00    -0.203 F 
ENDBRANCH  24  25
ENDBRANCH  23  24
ENDBRANCH  21  23
ENDBRANCH   1  17
BRANCH   4  33
HETATM   33  C   UNK N   1      42.429  38.399  50.657  0.00  0.00     0.272 C 
HETATM   34  O   UNK N   1      43.075  39.346  50.238  0.00  0.00    -0.266 OA
HETATM   35  N   UNK N   1      42.325  37.276  49.860  0.00  0.00    -0.343 N 
HETATM   36  C   UNK N   1      42.775  37.391  48.464  0.00  0.00     0.152 C 
HETATM   37  C   UNK N   1      41.537  36.110  50.269  0.00  0.00     0.152 C 
HETATM   38  C   UNK N   1      42.827  36.058  47.721  0.00  0.00     0.187 C 
HETATM   39  O   UNK N   1      41.674  35.292  47.995  0.00  0.00    -0.388 OA
HETATM   40  C   UNK N   1      41.752  34.903  49.350  0.00  0.00     0.187 C 
ENDBRANCH   4  33
TORSDOF 5
ENDMDL
MODEL 3
REMARK VINA RESULT:      -8.5      2.965      6.182
REMARK  5 active torsions:
REMARK  status: ('A' for Active; 'I' for Inactive)
REMARK    1  A    between atoms: C_2  and  C_3 
REMARK       I    between atoms: C_2  and  N_35 
REMARK    2  A    between atoms: C_3  and  C_4 
REMARK    3  A    between atoms: C_4  and  N_5 
REMARK    4  A    between atoms: C_9  and  N_10 
REMARK    5  A    between atoms: C_13  and  C_14 
REMARK       I    between atoms: C_14  and  N_16 
ROOT
HETATM    1  N   UNK N   1      41.346  38.656  51.516  0.00  0.00    -0.284 N 
HETATM    2  N   UNK N   1      40.178  38.271  51.011  0.00  0.00    -0.292 N 
ATOM      3  HN  UNK N   1      40.053  37.829  50.101  1.00  0.00     0.187 HD
HETATM    4  C   UNK N   1      39.185  38.549  51.876  0.00  0.00     0.126 A 
HETATM    5  C   UNK N   1      39.740  39.159  52.995  0.00  0.00     0.019 A 
HETATM    6  C   UNK N   1      41.125  39.200  52.760  0.00  0.00     0.072 A 
HETATM    7  C   UNK N   1      42.135  39.617  53.824  0.00  0.00     0.014 A 
HETATM    8  C   UNK N   1      43.455  39.996  53.533  0.00  0.00     0.015 A 
HETATM    9  C   UNK N   1      44.355  40.328  54.552  0.00  0.00     0.001 A 
HETATM   10  C   UNK N   1      43.957  40.286  55.887  0.00  0.00     0.002 A 
HETATM   11  C   UNK N   1      42.654  39.922  56.208  0.00  0.00     0.024 A 
HETATM   12  C   UNK N   1      41.751  39.595  55.193  0.00  0.00     0.072 A 
HETATM   13  S   UNK N   1      40.087  39.148  55.603  0.00  0.00     0.180 S 
HETATM   14  O   UNK N   1      39.977  37.642  55.889  0.00  0.00    -0.222 OA
HETATM   15  O   UNK N   1      39.634  39.802  56.917  0.00  0.00    -0.222 OA
HETATM   16  C   UNK N   1      39.043  39.631  54.248  0.00  0.00     0.189 C 
ENDROOT
BRANCH   1  17
HETATM   17  C   UNK N   1      42.584  38.297  50.782  0.00  0.00     0.126 C 
HETATM   18  C   UNK N   1      43.605  37.416  51.556  0.00  0.00     0.030 C 
HETATM   19  C   UNK N   1      44.804  37.203  50.615  0.00  0.00     0.022 C 
HETATM   20  C   UNK N   1      44.385  36.387  49.370  0.00  0.00     0.117 C 
HETATM   21  N   UNK N   1      42.958  36.568  49.037  0.00  0.00    -0.410 N 
HETATM   22  C   UNK N   1      42.367  37.891  49.298  0.00  0.00     0.144 C 
BRANCH  21  23
HETATM   23  C   UNK N   1      42.403  35.820  47.891  0.00  0.00     0.126 C 
BRANCH  23  24
HETATM   24  C   UNK N   1      41.816  34.426  48.195  0.00  0.00     0.122 C 
BRANCH  24  25
HETATM   25  C   UNK N   1      42.804  33.278  48.230  0.00  0.00     0.221 C 
HETATM   26  O   UNK N   1      43.100  32.743  49.289  0.00  0.00    -0.273 OA
HETATM   27  N   UNK N   1      43.296  32.777  47.064  0.00  0.00    -0.341 N 
HETATM   28  C   UNK N   1      43.066  33.186  45.727  0.00  0.00     0.206 A 
HETATM   29  C   UNK N   1      44.135  31.661  46.836  0.00  0.00     0.206 A 
HETATM   30  C   UNK N   1      43.960  31.975  45.318  0.00  0.00     0.275 A 
HETATM   31  F   UNK N   1      43.247  30.995  44.647  0.00  0.00    -0.203 F 
HETATM   32  F   UNK N   1      45.135  32.349  44.694  0.00  0.00    -0.203 F 
ENDBRANCH  24  25
ENDBRANCH  23  24
ENDBRANCH  21  23
ENDBRANCH   1  17
BRANCH   4  33
HETATM   33  C   UNK N   1      37.743  38.156  51.683  0.00  0.00     0.272 C 
HETATM   34  O   UNK N   1      37.011  38.952  51.117  0.00  0.00    -0.266 OA
HETATM   35  N   UNK N   1      37.193  36.976  52.147  0.00  0.00    -0.343 N 
HETATM   36  C   UNK N   1      35.726  36.872  52.158  0.00  0.00     0.152 C 
HETATM   37  C   UNK N   1      37.992  35.984  52.871  0.00  0.00     0.152 C 
HETATM   38  C   UNK N   1      35.210  35.470  52.477  0.00  0.00     0.187 C 
HETATM   39  O   UNK N   1      35.934  34.907  53.549  0.00  0.00    -0.388 OA
HETATM   40  C   UNK N   1      37.243  34.665  53.080  0.00  0.00     0.187 C 
ENDBRANCH   4  33
TORSDOF 5
ENDMDL
MODEL 4
REMARK VINA RESULT:      -8.5      4.219      6.502
REMARK  5 active torsions:
REMARK  status: ('A' for Active; 'I' for Inactive)
REMARK    1  A    between atoms: C_2  and  C_3 
REMARK       I    between atoms: C_2  and  N_35 
REMARK    2  A    between atoms: C_3  and  C_4 
REMARK    3  A    between atoms: C_4  and  N_5 
REMARK    4  A    between atoms: C_9  and  N_10 
REMARK    5  A    between atoms: C_13  and  C_14 
REMARK       I    between atoms: C_14  and  N_16 
ROOT
HETATM    1  N   UNK N   1      38.693  37.318  50.965  0.00  0.00    -0.284 N 
HETATM    2  N   UNK N   1      39.018  36.672  52.081  0.00  0.00    -0.292 N 
ATOM      3  HN  UNK N   1      39.928  36.252  52.269  1.00  0.00     0.187 HD
HETATM    4  C   UNK N   1      37.970  36.652  52.925  0.00  0.00     0.126 A 
HETATM    5  C   UNK N   1      36.907  37.309  52.317  0.00  0.00     0.019 A 
HETATM    6  C   UNK N   1      37.392  37.750  51.074  0.00  0.00     0.072 A 
HETATM    7  C   UNK N   1      36.607  38.686  50.161  0.00  0.00     0.014 A 
HETATM    8  C   UNK N   1      36.896  38.863  48.799  0.00  0.00     0.015 A 
HETATM    9  C   UNK N   1      36.171  39.769  48.016  0.00  0.00     0.001 A 
HETATM   10  C   UNK N   1      35.142  40.522  48.578  0.00  0.00     0.002 A 
HETATM   11  C   UNK N   1      34.826  40.365  49.923  0.00  0.00     0.024 A 
HETATM   12  C   UNK N   1      35.544  39.457  50.707  0.00  0.00     0.072 A 
HETATM   13  S   UNK N   1      35.128  39.246  52.415  0.00  0.00     0.180 S 
HETATM   14  O   UNK N   1      35.876  40.263  53.292  0.00  0.00    -0.222 OA
HETATM   15  O   UNK N   1      33.647  39.557  52.679  0.00  0.00    -0.222 OA
HETATM   16  C   UNK N   1      35.528  37.574  52.871  0.00  0.00     0.189 C 
ENDROOT
BRANCH   1  17
HETATM   17  C   UNK N   1      39.760  37.584  49.969  0.00  0.00     0.126 C 
HETATM   18  C   UNK N   1      40.698  38.784  50.278  0.00  0.00     0.030 C 
HETATM   19  C   UNK N   1      41.690  38.881  49.106  0.00  0.00     0.022 C 
HETATM   20  C   UNK N   1      42.596  37.627  49.050  0.00  0.00     0.117 C 
HETATM   21  N   UNK N   1      41.936  36.435  49.619  0.00  0.00    -0.410 N 
HETATM   22  C   UNK N   1      40.480  36.316  49.431  0.00  0.00     0.144 C 
BRANCH  21  23
HETATM   23  C   UNK N   1      42.694  35.169  49.668  0.00  0.00     0.126 C 
BRANCH  23  24
HETATM   24  C   UNK N   1      42.146  34.003  48.818  0.00  0.00     0.122 C 
BRANCH  24  25
HETATM   25  C   UNK N   1      43.106  32.860  48.556  0.00  0.00     0.221 C 
HETATM   26  O   UNK N   1      43.490  32.148  49.473  0.00  0.00    -0.273 OA
HETATM   27  N   UNK N   1      43.471  32.566  47.278  0.00  0.00    -0.341 N 
HETATM   28  C   UNK N   1      43.122  33.202  46.061  0.00  0.00     0.206 A 
HETATM   29  C   UNK N   1      44.257  31.500  46.780  0.00  0.00     0.206 A 
HETATM   30  C   UNK N   1      43.943  32.075  45.363  0.00  0.00     0.275 A 
HETATM   31  F   UNK N   1      43.146  31.231  44.608  0.00  0.00    -0.203 F 
HETATM   32  F   UNK N   1      45.062  32.543  44.699  0.00  0.00    -0.203 F 
ENDBRANCH  24  25
ENDBRANCH  23  24
ENDBRANCH  21  23
ENDBRANCH   1  17
BRANCH   4  33
HETATM   33  C   UNK N   1      38.007  36.100  54.327  0.00  0.00     0.272 C 
HETATM   34  O   UNK N   1      38.348  36.856  55.223  0.00  0.00    -0.266 OA
HETATM   35  N   UNK N   1      37.725  34.787  54.651  0.00  0.00    -0.343 N 
HETATM   36  C   UNK N   1      38.101  34.326  55.997  0.00  0.00     0.152 C 
HETATM   37  C   UNK N   1      37.347  33.805  53.632  0.00  0.00     0.152 C 
HETATM   38  C   UNK N   1      37.563  32.939  56.346  0.00  0.00     0.187 C 
HETATM   39  O   UNK N   1      37.730  32.055  55.260  0.00  0.00    -0.388 OA
HETATM   40  C   UNK N   1      36.856  32.487  54.239  0.00  0.00     0.187 C 
ENDBRANCH   4  33
TORSDOF 5
ENDMDL
MODEL 5
REMARK VINA RESULT:      -8.5      4.087      8.056
REMARK  5 active torsions:
REMARK  status: ('A' for Active; 'I' for Inactive)
REMARK    1  A    between atoms: C_2  and  C_3 
REMARK       I    between atoms: C_2  and  N_35 
REMARK    2  A    between atoms: C_3  and  C_4 
REMARK    3  A    between atoms: C_4  and  N_5 
REMARK    4  A    between atoms: C_9  and  N_10 
REMARK    5  A    between atoms: C_13  and  C_14 
REMARK       I    between atoms: C_14  and  N_16 
ROOT
HETATM    1  N   UNK N   1      41.943  37.024  49.432  0.00  0.00    -0.284 N 
HETATM    2  N   UNK N   1      40.650  37.181  49.166  0.00  0.00    -0.292 N 
ATOM      3  HN  UNK N   1      40.100  36.573  48.560  1.00  0.00     0.187 HD
HETATM    4  C   UNK N   1      40.172  38.261  49.813  0.00  0.00     0.126 A 
HETATM    5  C   UNK N   1      41.216  38.839  50.525  0.00  0.00     0.019 A 
HETATM    6  C   UNK N   1      42.336  38.024  50.291  0.00  0.00     0.072 A 
HETATM    7  C   UNK N   1      43.655  38.189  51.040  0.00  0.00     0.014 A 
HETATM    8  C   UNK N   1      44.869  37.640  50.600  0.00  0.00     0.015 A 
HETATM    9  C   UNK N   1      46.043  37.785  51.349  0.00  0.00     0.001 A 
HETATM   10  C   UNK N   1      46.028  38.479  52.557  0.00  0.00     0.002 A 
HETATM   11  C   UNK N   1      44.842  39.041  53.017  0.00  0.00     0.024 A 
HETATM   12  C   UNK N   1      43.669  38.904  52.269  0.00  0.00     0.072 A 
HETATM   13  S   UNK N   1      42.164  39.635  52.847  0.00  0.00     0.180 S 
HETATM   14  O   UNK N   1      41.417  38.680  53.792  0.00  0.00    -0.222 OA
HETATM   15  O   UNK N   1      42.434  40.871  53.718  0.00  0.00    -0.222 OA
HETATM   16  C   UNK N   1      41.178  40.050  51.427  0.00  0.00     0.189 C 
ENDROOT
BRANCH   1  17
HETATM   17  C   UNK N   1      42.620  35.800  48.938  0.00  0.00     0.126 C 
HETATM   18  C   UNK N   1      42.624  34.584  49.904  0.00  0.00     0.030 C 
HETATM   19  C   UNK N   1      43.398  33.460  49.195  0.00  0.00     0.022 C 
HETATM   20  C   UNK N   1      42.651  32.998  47.922  0.00  0.00     0.117 C 
HETATM   21  N   UNK N   1      41.823  34.072  47.339  0.00  0.00    -0.410 N 
HETATM   22  C   UNK N   1      42.329  35.451  47.451  0.00  0.00     0.144 C 
BRANCH  21  23
HETATM   23  C   UNK N   1      41.020  33.768  46.138  0.00  0.00     0.126 C 
BRANCH  23  24
HETATM   24  C   UNK N   1      41.800  33.505  44.834  0.00  0.00     0.122 C 
BRANCH  24  25
HETATM   25  C   UNK N   1      41.246  34.154  43.581  0.00  0.00     0.221 C 
HETATM   26  O   UNK N   1      40.581  35.177  43.653  0.00  0.00    -0.273 OA
HETATM   27  N   UNK N   1      41.567  33.645  42.361  0.00  0.00    -0.341 N 
HETATM   28  C   UNK N   1      42.353  32.517  42.021  0.00  0.00     0.206 A 
HETATM   29  C   UNK N   1      41.264  34.130  41.066  0.00  0.00     0.206 A 
HETATM   30  C   UNK N   1      42.121  32.938  40.537  0.00  0.00     0.275 A 
HETATM   31  F   UNK N   1      43.289  33.351  39.917  0.00  0.00    -0.203 F 
HETATM   32  F   UNK N   1      41.391  32.014  39.813  0.00  0.00    -0.203 F 
ENDBRANCH  24  25
ENDBRANCH  23  24
ENDBRANCH  21  23
ENDBRANCH   1  17
BRANCH   4  33
HETATM   33  C   UNK N   1      38.725  38.681  49.830  0.00  0.00     0.272 C 
HETATM   34  O   UNK N   1      38.352  39.459  48.966  0.00  0.00    -0.266 OA
HETATM   35  N   UNK N   1      37.812  38.278  50.784  0.00  0.00    -0.343 N 
HETATM   36  C   UNK N   1      36.535  39.005  50.850  0.00  0.00     0.152 C 
HETATM   37  C   UNK N   1      38.185  37.378  51.878  0.00  0.00     0.152 C 
HETATM   38  C   UNK N   1      35.506  38.362  51.778  0.00  0.00     0.187 C 
HETATM   39  O   UNK N   1      36.113  37.956  52.985  0.00  0.00    -0.388 OA
HETATM   40  C   UNK N   1      36.973  36.881  52.672  0.00  0.00     0.187 C 
ENDBRANCH   4  33
TORSDOF 5
ENDMDL
MODEL 6
REMARK VINA RESULT:      -8.4      3.733      8.485
REMARK  5 active torsions:
REMARK  status: ('A' for Active; 'I' for Inactive)
REMARK    1  A    between atoms: C_2  and  C_3 
REMARK       I    between atoms: C_2  and  N_35 
REMARK    2  A    between atoms: C_3  and  C_4 
REMARK    3  A    between atoms: C_4  and  N_5 
REMARK    4  A    between atoms: C_9  and  N_10 
REMARK    5  A    between atoms: C_13  and  C_14 
REMARK       I    between atoms: C_14  and  N_16 
ROOT
HETATM    1  N   UNK N   1      42.334  38.190  51.222  0.00  0.00    -0.284 N 
HETATM    2  N   UNK N   1      41.228  38.627  51.817  0.00  0.00    -0.292 N 
ATOM      3  HN  UNK N   1      40.284  38.309  51.601  1.00  0.00     0.187 HD
HETATM    4  C   UNK N   1      41.537  39.552  52.746  0.00  0.00     0.126 A 
HETATM    5  C   UNK N   1      42.915  39.731  52.742  0.00  0.00     0.019 A 
HETATM    6  C   UNK N   1      43.413  38.837  51.779  0.00  0.00     0.072 A 
HETATM    7  C   UNK N   1      44.902  38.568  51.586  0.00  0.00     0.014 A 
HETATM    8  C   UNK N   1      45.439  37.967  50.437  0.00  0.00     0.015 A 
HETATM    9  C   UNK N   1      46.810  37.703  50.330  0.00  0.00     0.001 A 
HETATM   10  C   UNK N   1      47.675  38.032  51.373  0.00  0.00     0.002 A 
HETATM   11  C   UNK N   1      47.176  38.635  52.521  0.00  0.00     0.024 A 
HETATM   12  C   UNK N   1      45.809  38.905  52.630  0.00  0.00     0.072 A 
HETATM   13  S   UNK N   1      45.176  39.689  54.086  0.00  0.00     0.180 S 
HETATM   14  O   UNK N   1      44.837  38.650  55.166  0.00  0.00    -0.222 OA
HETATM   15  O   UNK N   1      46.237  40.576  54.756  0.00  0.00    -0.222 OA
HETATM   16  C   UNK N   1      43.746  40.636  53.619  0.00  0.00     0.189 C 
ENDROOT
BRANCH   1  17
HETATM   17  C   UNK N   1      42.222  37.054  50.274  0.00  0.00     0.126 C 
HETATM   18  C   UNK N   1      42.741  35.683  50.788  0.00  0.00     0.030 C 
HETATM   19  C   UNK N   1      42.552  34.681  49.637  0.00  0.00     0.022 C 
HETATM   20  C   UNK N   1      41.049  34.485  49.322  0.00  0.00     0.117 C 
HETATM   21  N   UNK N   1      40.246  35.675  49.666  0.00  0.00    -0.410 N 
HETATM   22  C   UNK N   1      40.882  36.992  49.489  0.00  0.00     0.144 C 
BRANCH  21  23
HETATM   23  C   UNK N   1      38.786  35.622  49.456  0.00  0.00     0.126 C 
BRANCH  23  24
HETATM   24  C   UNK N   1      37.911  36.328  50.512  0.00  0.00     0.122 C 
BRANCH  24  25
HETATM   25  C   UNK N   1      37.195  37.584  50.055  0.00  0.00     0.221 C 
HETATM   26  O   UNK N   1      37.152  37.879  48.870  0.00  0.00    -0.273 OA
HETATM   27  N   UNK N   1      36.516  38.339  50.962  0.00  0.00    -0.341 N 
HETATM   28  C   UNK N   1      36.375  38.176  52.362  0.00  0.00     0.206 A 
HETATM   29  C   UNK N   1      35.698  39.477  50.765  0.00  0.00     0.206 A 
HETATM   30  C   UNK N   1      35.431  39.416  52.301  0.00  0.00     0.275 A 
HETATM   31  F   UNK N   1      34.118  39.094  52.604  0.00  0.00    -0.203 F 
HETATM   32  F   UNK N   1      35.919  40.511  52.989  0.00  0.00    -0.203 F 
ENDBRANCH  24  25
ENDBRANCH  23  24
ENDBRANCH  21  23
ENDBRANCH   1  17
BRANCH   4  33
HETATM   33  C   UNK N   1      40.547  40.186  53.689  0.00  0.00     0.272 C 
HETATM   34  O   UNK N   1      40.018  41.228  53.336  0.00  0.00    -0.266 OA
HETATM   35  N   UNK N   1      40.237  39.686  54.939  0.00  0.00    -0.343 N 
HETATM   36  C   UNK N   1      39.500  40.568  55.857  0.00  0.00     0.152 C 
HETATM   37  C   UNK N   1      40.856  38.463  55.456  0.00  0.00     0.152 C 
HETATM   38  C   UNK N   1      39.013  39.869  57.125  0.00  0.00     0.187 C 
HETATM   39  O   UNK N   1      40.026  39.041  57.654  0.00  0.00    -0.388 OA
HETATM   40  C   UNK N   1      40.198  37.972  56.749  0.00  0.00     0.187 C 
ENDBRANCH   4  33
TORSDOF 5
ENDMDL
MODEL 7
REMARK VINA RESULT:      -8.3      3.859      6.679
REMARK  5 active torsions:
REMARK  status: ('A' for Active; 'I' for Inactive)
REMARK    1  A    between atoms: C_2  and  C_3 
REMARK       I    between atoms: C_2  and  N_35 
REMARK    2  A    between atoms: C_3  and  C_4 
REMARK    3  A    between atoms: C_4  and  N_5 
REMARK    4  A    between atoms: C_9  and  N_10 
REMARK    5  A    between atoms: C_13  and  C_14 
REMARK       I    between atoms: C_14  and  N_16 
ROOT
HETATM    1  N   UNK N   1      38.714  37.374  51.193  0.00  0.00    -0.284 N 
HETATM    2  N   UNK N   1      38.992  36.701  52.306  0.00  0.00    -0.292 N 
ATOM      3  HN  UNK N   1      39.900  36.296  52.533  1.00  0.00     0.187 HD
HETATM    4  C   UNK N   1      37.901  36.632  53.090  0.00  0.00     0.126 A 
HETATM    5  C   UNK N   1      36.857  37.285  52.444  0.00  0.00     0.019 A 
HETATM    6  C   UNK N   1      37.400  37.773  51.243  0.00  0.00     0.072 A 
HETATM    7  C   UNK N   1      36.644  38.720  50.315  0.00  0.00     0.014 A 
HETATM    8  C   UNK N   1      37.003  38.945  48.978  0.00  0.00     0.015 A 
HETATM    9  C   UNK N   1      36.301  39.858  48.182  0.00  0.00     0.001 A 
HETATM   10  C   UNK N   1      35.226  40.571  48.708  0.00  0.00     0.002 A 
HETATM   11  C   UNK N   1      34.840  40.366  50.028  0.00  0.00     0.024 A 
HETATM   12  C   UNK N   1      35.535  39.451  50.824  0.00  0.00     0.072 A 
HETATM   13  S   UNK N   1      35.031  39.178  52.500  0.00  0.00     0.180 S 
HETATM   14  O   UNK N   1      35.705  40.184  53.446  0.00  0.00    -0.222 OA
HETATM   15  O   UNK N   1      33.531  39.448  52.690  0.00  0.00    -0.222 OA
HETATM   16  C   UNK N   1      35.444  37.503  52.927  0.00  0.00     0.189 C 
ENDROOT
BRANCH   1  17
HETATM   17  C   UNK N   1      39.828  37.694  50.267  0.00  0.00     0.126 C 
HETATM   18  C   UNK N   1      40.835  38.771  50.757  0.00  0.00     0.030 C 
HETATM   19  C   UNK N   1      41.868  38.953  49.631  0.00  0.00     0.022 C 
HETATM   20  C   UNK N   1      42.687  37.657  49.425  0.00  0.00     0.117 C 
HETATM   21  N   UNK N   1      41.931  36.449  49.812  0.00  0.00    -0.410 N 
HETATM   22  C   UNK N   1      40.477  36.461  49.578  0.00  0.00     0.144 C 
BRANCH  21  23
HETATM   23  C   UNK N   1      42.599  35.137  49.706  0.00  0.00     0.126 C 
BRANCH  23  24
HETATM   24  C   UNK N   1      42.426  34.380  48.372  0.00  0.00     0.122 C 
BRANCH  24  25
HETATM   25  C   UNK N   1      43.159  33.059  48.254  0.00  0.00     0.221 C 
HETATM   26  O   UNK N   1      43.285  32.329  49.227  0.00  0.00    -0.273 OA
HETATM   27  N   UNK N   1      43.599  32.639  47.037  0.00  0.00    -0.341 N 
HETATM   28  C   UNK N   1      43.525  33.273  45.772  0.00  0.00     0.206 A 
HETATM   29  C   UNK N   1      44.205  31.417  46.662  0.00  0.00     0.206 A 
HETATM   30  C   UNK N   1      44.176  31.974  45.205  0.00  0.00     0.275 A 
HETATM   31  F   UNK N   1      43.316  31.270  44.379  0.00  0.00    -0.203 F 
HETATM   32  F   UNK N   1      45.434  32.181  44.669  0.00  0.00    -0.203 F 
ENDBRANCH  24  25
ENDBRANCH  23  24
ENDBRANCH  21  23
ENDBRANCH   1  17
BRANCH   4  33
HETATM   33  C   UNK N   1      37.874  36.038  54.475  0.00  0.00     0.272 C 
HETATM   34  O   UNK N   1      37.274  34.986  54.627  0.00  0.00    -0.266 OA
HETATM   35  N   UNK N   1      38.444  36.632  55.585  0.00  0.00    -0.343 N 
HETATM   36  C   UNK N   1      38.074  36.098  56.904  0.00  0.00     0.152 C 
HETATM   37  C   UNK N   1      39.148  37.914  55.498  0.00  0.00     0.152 C 
HETATM   38  C   UNK N   1      38.907  36.662  58.054  0.00  0.00     0.187 C 
HETATM   39  O   UNK N   1      39.067  38.057  57.912  0.00  0.00    -0.388 OA
HETATM   40  C   UNK N   1      39.895  38.264  56.788  0.00  0.00     0.187 C 
ENDBRANCH   4  33
TORSDOF 5
ENDMDL
MODEL 8
REMARK VINA RESULT:      -8.2      3.995      7.436
REMARK  5 active torsions:
REMARK  status: ('A' for Active; 'I' for Inactive)
REMARK    1  A    between atoms: C_2  and  C_3 
REMARK       I    between atoms: C_2  and  N_35 
REMARK    2  A    between atoms: C_3  and  C_4 
REMARK    3  A    between atoms: C_4  and  N_5 
REMARK    4  A    between atoms: C_9  and  N_10 
REMARK    5  A    between atoms: C_13  and  C_14 
REMARK       I    between atoms: C_14  and  N_16 
ROOT
HETATM    1  N   UNK N   1      42.009  38.610  52.783  0.00  0.00    -0.284 N 
HETATM    2  N   UNK N   1      40.682  38.697  52.768  0.00  0.00    -0.292 N 
ATOM      3  HN  UNK N   1      40.105  38.961  53.566  1.00  0.00     0.187 HD
HETATM    4  C   UNK N   1      40.211  38.385  51.546  0.00  0.00     0.126 A 
HETATM    5  C   UNK N   1      41.291  38.067  50.731  0.00  0.00     0.019 A 
HETATM    6  C   UNK N   1      42.435  38.238  51.529  0.00  0.00     0.072 A 
HETATM    7  C   UNK N   1      43.853  38.180  50.971  0.00  0.00     0.014 A 
HETATM    8  C   UNK N   1      44.993  38.001  51.770  0.00  0.00     0.015 A 
HETATM    9  C   UNK N   1      46.277  37.999  51.210  0.00  0.00     0.001 A 
HETATM   10  C   UNK N   1      46.449  38.179  49.839  0.00  0.00     0.002 A 
HETATM   11  C   UNK N   1      45.339  38.350  49.019  0.00  0.00     0.024 A 
HETATM   12  C   UNK N   1      44.056  38.348  49.573  0.00  0.00     0.072 A 
HETATM   13  S   UNK N   1      42.643  38.550  48.526  0.00  0.00     0.180 S 
HETATM   14  O   UNK N   1      42.318  40.038  48.323  0.00  0.00    -0.222 OA
HETATM   15  O   UNK N   1      42.917  38.040  47.103  0.00  0.00    -0.222 OA
HETATM   16  C   UNK N   1      41.283  37.681  49.272  0.00  0.00     0.189 C 
ENDROOT
BRANCH   1  17
HETATM   17  C   UNK N   1      42.731  39.065  53.996  0.00  0.00     0.126 C 
HETATM   18  C   UNK N   1      43.594  40.347  53.837  0.00  0.00     0.030 C 
HETATM   19  C   UNK N   1      44.261  40.601  55.199  0.00  0.00     0.022 C 
HETATM   20  C   UNK N   1      43.200  40.925  56.277  0.00  0.00     0.117 C 
HETATM   21  N   UNK N   1      41.893  40.307  55.979  0.00  0.00    -0.410 N 
HETATM   22  C   UNK N   1      41.904  38.995  55.311  0.00  0.00     0.144 C 
BRANCH  21  23
HETATM   23  C   UNK N   1      40.768  40.560  56.902  0.00  0.00     0.126 C 
BRANCH  23  24
HETATM   24  C   UNK N   1      39.349  40.358  56.332  0.00  0.00     0.122 C 
BRANCH  24  25
HETATM   25  C   UNK N   1      38.947  41.281  55.199  0.00  0.00     0.221 C 
HETATM   26  O   UNK N   1      39.237  41.009  54.043  0.00  0.00    -0.273 OA
HETATM   27  N   UNK N   1      38.178  42.373  55.460  0.00  0.00    -0.341 N 
HETATM   28  C   UNK N   1      37.677  42.863  56.691  0.00  0.00     0.206 A 
HETATM   29  C   UNK N   1      37.597  43.309  54.571  0.00  0.00     0.206 A 
HETATM   30  C   UNK N   1      36.956  43.952  55.840  0.00  0.00     0.275 A 
HETATM   31  F   UNK N   1      35.577  43.819  55.870  0.00  0.00    -0.203 F 
HETATM   32  F   UNK N   1      37.407  45.234  56.095  0.00  0.00    -0.203 F 
ENDBRANCH  24  25
ENDBRANCH  23  24
ENDBRANCH  21  23
ENDBRANCH   1  17
BRANCH   4  33
HETATM   33  C   UNK N   1      38.765  38.480  51.133  0.00  0.00     0.272 C 
HETATM   34  O   UNK N   1      38.501  39.154  50.149  0.00  0.00    -0.266 OA
HETATM   35  N   UNK N   1      37.721  37.893  51.822  0.00  0.00    -0.343 N 
HETATM   36  C   UNK N   1      36.357  38.326  51.482  0.00  0.00     0.152 C 
HETATM   37  C   UNK N   1      37.946  37.102  53.034  0.00  0.00     0.152 C 
HETATM   38  C   UNK N   1      35.262  37.479  52.129  0.00  0.00     0.187 C 
HETATM   39  O   UNK N   1      35.570  37.221  53.482  0.00  0.00    -0.388 OA
HETATM   40  C   UNK N   1      36.687  36.358  53.492  0.00  0.00     0.187 C 
ENDBRANCH   4  33
TORSDOF 5
ENDMDL
MODEL 9
REMARK VINA RESULT:      -8.1      3.073      5.973
REMARK  5 active torsions:
REMARK  status: ('A' for Active; 'I' for Inactive)
REMARK    1  A    between atoms: C_2  and  C_3 
REMARK       I    between atoms: C_2  and  N_35 
REMARK    2  A    between atoms: C_3  and  C_4 
REMARK    3  A    between atoms: C_4  and  N_5 
REMARK    4  A    between atoms: C_9  and  N_10 
REMARK    5  A    between atoms: C_13  and  C_14 
REMARK       I    between atoms: C_14  and  N_16 
ROOT
HETATM    1  N   UNK N   1      40.650  37.942  51.299  0.00  0.00    -0.284 N 
HETATM    2  N   UNK N   1      40.831  38.894  52.210  0.00  0.00    -0.292 N 
ATOM      3  HN  UNK N   1      41.662  39.480  52.285  1.00  0.00     0.187 HD
HETATM    4  C   UNK N   1      39.758  38.970  53.019  0.00  0.00     0.126 A 
HETATM    5  C   UNK N   1      38.839  38.008  52.617  0.00  0.00     0.019 A 
HETATM    6  C   UNK N   1      39.414  37.375  51.502  0.00  0.00     0.072 A 
HETATM    7  C   UNK N   1      38.654  36.380  50.629  0.00  0.00     0.014 A 
HETATM    8  C   UNK N   1      39.281  35.490  49.744  0.00  0.00     0.015 A 
HETATM    9  C   UNK N   1      38.534  34.628  48.933  0.00  0.00     0.001 A 
HETATM   10  C   UNK N   1      37.142  34.639  48.986  0.00  0.00     0.002 A 
HETATM   11  C   UNK N   1      36.490  35.504  49.858  0.00  0.00     0.024 A 
HETATM   12  C   UNK N   1      37.233  36.363  50.673  0.00  0.00     0.072 A 
HETATM   13  S   UNK N   1      36.402  37.452  51.795  0.00  0.00     0.180 S 
HETATM   14  O   UNK N   1      36.035  38.776  51.106  0.00  0.00    -0.222 OA
HETATM   15  O   UNK N   1      35.045  36.882  52.235  0.00  0.00    -0.222 OA
HETATM   16  C   UNK N   1      37.473  37.719  53.189  0.00  0.00     0.189 C 
ENDROOT
BRANCH   1  17
HETATM   17  C   UNK N   1      41.654  37.804  50.216  0.00  0.00     0.126 C 
HETATM   18  C   UNK N   1      41.701  38.959  49.177  0.00  0.00     0.030 C 
HETATM   19  C   UNK N   1      42.782  38.583  48.149  0.00  0.00     0.022 C 
HETATM   20  C   UNK N   1      44.179  38.542  48.813  0.00  0.00     0.117 C 
HETATM   21  N   UNK N   1      44.105  38.216  50.251  0.00  0.00    -0.410 N 
HETATM   22  C   UNK N   1      43.045  37.287  50.679  0.00  0.00     0.144 C 
BRANCH  21  23
HETATM   23  C   UNK N   1      45.359  38.177  51.029  0.00  0.00     0.126 C 
BRANCH  23  24
HETATM   24  C   UNK N   1      45.239  37.773  52.513  0.00  0.00     0.122 C 
BRANCH  24  25
HETATM   25  C   UNK N   1      45.741  38.785  53.523  0.00  0.00     0.221 C 
HETATM   26  O   UNK N   1      46.915  39.126  53.531  0.00  0.00    -0.273 OA
HETATM   27  N   UNK N   1      44.860  39.388  54.368  0.00  0.00    -0.341 N 
HETATM   28  C   UNK N   1      43.463  39.204  54.512  0.00  0.00     0.206 A 
HETATM   29  C   UNK N   1      45.068  40.423  55.310  0.00  0.00     0.206 A 
HETATM   30  C   UNK N   1      43.530  40.351  55.566  0.00  0.00     0.275 A 
HETATM   31  F   UNK N   1      42.863  41.491  55.149  0.00  0.00    -0.203 F 
HETATM   32  F   UNK N   1      43.204  39.939  56.845  0.00  0.00    -0.203 F 
ENDBRANCH  24  25
ENDBRANCH  23  24
ENDBRANCH  21  23
ENDBRANCH   1  17
BRANCH   4  33
HETATM   33  C   UNK N   1      39.568  40.006  54.098  0.00  0.00     0.272 C 
HETATM   34  O   UNK N   1      39.333  41.151  53.746  0.00  0.00    -0.266 OA
HETATM   35  N   UNK N   1      39.687  39.748  55.450  0.00  0.00    -0.343 N 
HETATM   36  C   UNK N   1      39.781  40.905  56.354  0.00  0.00     0.152 C 
HETATM   37  C   UNK N   1      40.006  38.410  55.955  0.00  0.00     0.152 C 
HETATM   38  C   UNK N   1      39.693  40.538  57.834  0.00  0.00     0.187 C 
HETATM   39  O   UNK N   1      40.480  39.401  58.111  0.00  0.00    -0.388 OA
HETATM   40  C   UNK N   1      39.858  38.305  57.476  0.00  0.00     0.187 C 
ENDBRANCH   4  33
TORSDOF 5
ENDMDL
