MODEL 1
REMARK VINA RESULT:      -8.5      0.000      0.000
REMARK  5 active torsions:
REMARK  status: ('A' for Active; 'I' for Inactive)
REMARK    1  A    between atoms: O_2  and  C_3 
REMARK    2  A    between atoms: C_14  and  C_15 
REMARK       I    between atoms: C_15  and  N_17 
REMARK    3  A    between atoms: N_25  and  C_26 
REMARK    4  A    between atoms: N_30  and  C_31 
REMARK    5  A    between atoms: C_31  and  C_32 
ROOT
HETATM    1  C   UNK N   1      46.721  38.207  51.510  0.00  0.00     0.069 A 
HETATM    2  C   UNK N   1      46.518  37.551  50.298  0.00  0.00     0.038 A 
HETATM    3  C   UNK N   1      45.229  37.360  49.798  0.00  0.00     0.018 A 
HETATM    4  C   UNK N   1      44.096  37.810  50.497  0.00  0.00     0.015 A 
HETATM    5  C   UNK N   1      44.318  38.511  51.705  0.00  0.00     0.074 A 
HETATM    6  C   UNK N   1      45.609  38.698  52.214  0.00  0.00     0.061 A 
HETATM    7  S   UNK N   1      42.920  39.199  52.543  0.00  0.00     0.180 S 
HETATM    8  O   UNK N   1      42.384  38.213  53.591  0.00  0.00    -0.222 OA
HETATM    9  O   UNK N   1      43.313  40.426  53.379  0.00  0.00    -0.222 OA
HETATM   10  C   UNK N   1      41.662  39.610  51.338  0.00  0.00     0.189 C 
HETATM   11  C   UNK N   1      41.602  38.446  50.384  0.00  0.00     0.019 A 
HETATM   12  C   UNK N   1      40.499  37.996  49.675  0.00  0.00     0.126 A 
HETATM   13  N   UNK N   1      40.864  36.926  48.949  0.00  0.00    -0.292 N 
ATOM     14  HN  UNK N   1      40.242  36.385  48.347  1.00  0.00     0.187 HD
HETATM   15  N   UNK N   1      42.155  36.675  49.131  0.00  0.00    -0.284 N 
HETATM   16  C   UNK N   1      42.671  37.625  49.983  0.00  0.00     0.072 A 
ENDROOT
BRANCH  15  17
HETATM   17  C   UNK N   1      42.720  35.428  48.565  0.00  0.00     0.137 C 
HETATM   18  C   UNK N   1      42.384  34.172  49.387  0.00  0.00     0.031 C 
HETATM   19  C   UNK N   1      43.071  32.957  48.755  0.00  0.00     0.032 C 
HETATM   20  C   UNK N   1      42.697  32.850  47.273  0.00  0.00     0.272 C 
HETATM   21  N   UNK N   1      43.184  34.045  46.545  0.00  0.00     0.090 N 
HETATM   22  C   UNK N   1      42.533  35.277  47.031  0.00  0.00     0.299 C 
BRANCH  21  23
HETATM   23  C   UNK N   1      43.043  33.882  45.076  0.00  0.00     0.279 C 
BRANCH  23  24
HETATM   24  C   UNK N   1      42.044  34.904  44.513  0.00  0.00     0.040 C 
HETATM   25  C   UNK N   1      40.967  34.351  43.631  0.00  0.00     0.035 C 
HETATM   26  C   UNK N   1      40.447  35.656  43.056  0.00  0.00     0.168 C 
HETATM   27  O   UNK N   1      41.567  36.498  42.838  0.00  0.00    -0.391 OA
HETATM   28  C   UNK N   1      42.644  35.920  43.553  0.00  0.00     0.173 C 
ENDBRANCH  23  24
ENDBRANCH  21  23
ENDBRANCH  15  17
BRANCH  12  29
HETATM   29  C   UNK N   1      39.115  38.573  49.701  0.00  0.00     0.272 C 
HETATM   30  O   UNK N   1      38.825  39.403  48.851  0.00  0.00    -0.266 OA
HETATM   31  N   UNK N   1      38.144  38.173  50.599  0.00  0.00    -0.343 N 
HETATM   32  C   UNK N   1      36.802  38.755  50.461  0.00  0.00     0.152 C 
HETATM   33  C   UNK N   1      38.379  37.032  51.496  0.00  0.00     0.152 C 
HETATM   34  C   UNK N   1      35.799  38.241  51.493  0.00  0.00     0.187 C 
HETATM   35  O   UNK N   1      35.963  36.851  51.675  0.00  0.00    -0.388 OA
HETATM   36  C   UNK N   1      37.175  36.681  52.380  0.00  0.00     0.187 C 
ENDBRANCH  12  29
BRANCH   1  37
HETATM   37  O   UNK N   1      47.995  38.356  51.958  0.00  0.00    -0.356 OA
HETATM   38  C   UNK N   1      48.683  39.550  52.011  0.00  0.00     0.210 C 
ENDBRANCH   1  37
TORSDOF 5
ENDMDL
MODEL 2
REMARK VINA RESULT:      -8.3      4.879      6.805
REMARK  5 active torsions:
REMARK  status: ('A' for Active; 'I' for Inactive)
REMARK    1  A    between atoms: O_2  and  C_3 
REMARK    2  A    between atoms: C_14  and  C_15 
REMARK       I    between atoms: C_15  and  N_17 
REMARK    3  A    between atoms: N_25  and  C_26 
REMARK    4  A    between atoms: N_30  and  C_31 
REMARK    5  A    between atoms: C_31  and  C_32 
ROOT
HETATM    1  C   UNK N   1      44.977  40.090  55.192  0.00  0.00     0.069 A 
HETATM    2  C   UNK N   1      44.276  40.068  53.988  0.00  0.00     0.038 A 
HETATM    3  C   UNK N   1      42.883  40.137  53.974  0.00  0.00     0.018 A 
HETATM    4  C   UNK N   1      42.139  40.220  55.163  0.00  0.00     0.015 A 
HETATM    5  C   UNK N   1      42.864  40.284  56.376  0.00  0.00     0.074 A 
HETATM    6  C   UNK N   1      44.262  40.207  56.395  0.00  0.00     0.061 A 
HETATM    7  S   UNK N   1      41.961  40.515  57.879  0.00  0.00     0.180 S 
HETATM    8  O   UNK N   1      41.633  39.159  58.522  0.00  0.00    -0.222 OA
HETATM    9  O   UNK N   1      42.816  41.215  58.946  0.00  0.00    -0.222 OA
HETATM   10  C   UNK N   1      40.471  41.443  57.529  0.00  0.00     0.189 C 
HETATM   11  C   UNK N   1      39.898  40.851  56.268  0.00  0.00     0.019 A 
HETATM   12  C   UNK N   1      38.564  40.785  55.900  0.00  0.00     0.126 A 
HETATM   13  N   UNK N   1      38.476  40.169  54.710  0.00  0.00    -0.292 N 
ATOM     14  HN  UNK N   1      37.606  39.971  54.214  1.00  0.00     0.187 HD
HETATM   15  N   UNK N   1      39.691  39.855  54.273  0.00  0.00    -0.284 N 
HETATM   16  C   UNK N   1      40.615  40.301  55.190  0.00  0.00     0.072 A 
ENDROOT
BRANCH  15  17
HETATM   17  C   UNK N   1      39.810  39.006  53.065  0.00  0.00     0.137 C 
HETATM   18  C   UNK N   1      38.491  38.328  52.656  0.00  0.00     0.031 C 
HETATM   19  C   UNK N   1      38.743  37.426  51.444  0.00  0.00     0.032 C 
HETATM   20  C   UNK N   1      39.406  38.226  50.319  0.00  0.00     0.272 C 
HETATM   21  N   UNK N   1      40.729  38.720  50.766  0.00  0.00     0.090 N 
HETATM   22  C   UNK N   1      40.601  39.659  51.899  0.00  0.00     0.299 C 
BRANCH  21  23
HETATM   23  C   UNK N   1      41.501  39.306  49.642  0.00  0.00     0.279 C 
BRANCH  23  24
HETATM   24  C   UNK N   1      42.816  38.542  49.432  0.00  0.00     0.040 C 
HETATM   25  C   UNK N   1      43.669  38.354  50.650  0.00  0.00     0.035 C 
HETATM   26  C   UNK N   1      44.942  37.886  49.970  0.00  0.00     0.168 C 
HETATM   27  O   UNK N   1      45.081  38.631  48.771  0.00  0.00    -0.391 OA
HETATM   28  C   UNK N   1      43.826  39.243  48.536  0.00  0.00     0.173 C 
ENDBRANCH  23  24
ENDBRANCH  21  23
ENDBRANCH  15  17
BRANCH  12  29
HETATM   29  C   UNK N   1      37.389  41.293  56.683  0.00  0.00     0.272 C 
HETATM   30  O   UNK N   1      36.851  40.525  57.469  0.00  0.00    -0.266 OA
HETATM   31  N   UNK N   1      36.925  42.591  56.598  0.00  0.00    -0.343 N 
HETATM   32  C   UNK N   1      35.821  42.983  57.485  0.00  0.00     0.152 C 
HETATM   33  C   UNK N   1      37.668  43.603  55.832  0.00  0.00     0.152 C 
HETATM   34  C   UNK N   1      35.388  44.440  57.322  0.00  0.00     0.187 C 
HETATM   35  O   UNK N   1      36.523  45.267  57.180  0.00  0.00    -0.388 OA
HETATM   36  C   UNK N   1      37.051  45.006  55.897  0.00  0.00     0.187 C 
ENDBRANCH  12  29
BRANCH   1  37
HETATM   37  O   UNK N   1      46.333  40.008  55.153  0.00  0.00    -0.356 OA
HETATM   38  C   UNK N   1      47.081  39.757  54.022  0.00  0.00     0.210 C 
ENDBRANCH   1  37
TORSDOF 5
ENDMDL
MODEL 3
REMARK VINA RESULT:      -8.3      3.677      7.291
REMARK  5 active torsions:
REMARK  status: ('A' for Active; 'I' for Inactive)
REMARK    1  A    between atoms: O_2  and  C_3 
REMARK    2  A    between atoms: C_14  and  C_15 
REMARK       I    between atoms: C_15  and  N_17 
REMARK    3  A    between atoms: N_25  and  C_26 
REMARK    4  A    between atoms: N_30  and  C_31 
REMARK    5  A    between atoms: C_31  and  C_32 
ROOT
HETATM    1  C   UNK N   1      35.298  40.354  48.429  0.00  0.00     0.069 A 
HETATM    2  C   UNK N   1      36.295  39.508  47.947  0.00  0.00     0.038 A 
HETATM    3  C   UNK N   1      36.993  38.664  48.811  0.00  0.00     0.018 A 
HETATM    4  C   UNK N   1      36.726  38.641  50.190  0.00  0.00     0.015 A 
HETATM    5  C   UNK N   1      35.684  39.473  50.661  0.00  0.00     0.074 A 
HETATM    6  C   UNK N   1      34.986  40.327  49.799  0.00  0.00     0.061 A 
HETATM    7  S   UNK N   1      35.241  39.373  52.371  0.00  0.00     0.180 S 
HETATM    8  O   UNK N   1      36.009  40.423  53.187  0.00  0.00    -0.222 OA
HETATM    9  O   UNK N   1      33.770  39.758  52.594  0.00  0.00    -0.222 OA
HETATM   10  C   UNK N   1      35.576  37.718  52.965  0.00  0.00     0.189 C 
HETATM   11  C   UNK N   1      36.922  37.338  52.405  0.00  0.00     0.019 A 
HETATM   12  C   UNK N   1      37.859  36.489  52.972  0.00  0.00     0.126 A 
HETATM   13  N   UNK N   1      38.929  36.430  52.161  0.00  0.00    -0.292 N 
ATOM     14  HN  UNK N   1      39.776  35.891  52.346  1.00  0.00     0.187 HD
HETATM   15  N   UNK N   1      38.722  37.178  51.083  0.00  0.00    -0.284 N 
HETATM   16  C   UNK N   1      37.463  37.729  51.168  0.00  0.00     0.072 A 
ENDROOT
BRANCH  15  17
HETATM   17  C   UNK N   1      39.849  37.398  50.148  0.00  0.00     0.137 C 
HETATM   18  C   UNK N   1      40.289  38.868  50.049  0.00  0.00     0.031 C 
HETATM   19  C   UNK N   1      41.407  38.991  49.009  0.00  0.00     0.032 C 
HETATM   20  C   UNK N   1      42.545  38.022  49.340  0.00  0.00     0.272 C 
HETATM   21  N   UNK N   1      42.052  36.626  49.275  0.00  0.00     0.090 N 
HETATM   22  C   UNK N   1      41.008  36.374  50.288  0.00  0.00     0.299 C 
BRANCH  21  23
HETATM   23  C   UNK N   1      43.166  35.650  49.367  0.00  0.00     0.279 C 
BRANCH  23  24
HETATM   24  C   UNK N   1      43.144  34.690  48.169  0.00  0.00     0.040 C 
HETATM   25  C   UNK N   1      41.910  34.725  47.320  0.00  0.00     0.035 C 
HETATM   26  C   UNK N   1      42.150  33.464  46.511  0.00  0.00     0.168 C 
HETATM   27  O   UNK N   1      42.721  32.504  47.384  0.00  0.00    -0.391 OA
HETATM   28  C   UNK N   1      43.142  33.212  48.534  0.00  0.00     0.173 C 
ENDBRANCH  23  24
ENDBRANCH  21  23
ENDBRANCH  15  17
BRANCH  12  29
HETATM   29  C   UNK N   1      37.738  35.756  54.275  0.00  0.00     0.272 C 
HETATM   30  O   UNK N   1      37.282  34.622  54.252  0.00  0.00    -0.266 OA
HETATM   31  N   UNK N   1      38.167  36.277  55.480  0.00  0.00    -0.343 N 
HETATM   32  C   UNK N   1      38.071  35.420  56.669  0.00  0.00     0.152 C 
HETATM   33  C   UNK N   1      38.914  37.542  55.525  0.00  0.00     0.152 C 
HETATM   34  C   UNK N   1      38.579  36.083  57.949  0.00  0.00     0.187 C 
HETATM   35  O   UNK N   1      39.760  36.809  57.680  0.00  0.00    -0.388 OA
HETATM   36  C   UNK N   1      39.372  37.943  56.934  0.00  0.00     0.187 C 
ENDBRANCH  12  29
BRANCH   1  37
HETATM   37  O   UNK N   1      34.656  41.166  47.549  0.00  0.00    -0.356 OA
HETATM   38  C   UNK N   1      34.396  40.858  46.230  0.00  0.00     0.210 C 
ENDBRANCH   1  37
TORSDOF 5
ENDMDL
MODEL 4
REMARK VINA RESULT:      -8.2      3.568      7.349
REMARK  5 active torsions:
REMARK  status: ('A' for Active; 'I' for Inactive)
REMARK    1  A    between atoms: O_2  and  C_3 
REMARK    2  A    between atoms: C_14  and  C_15 
REMARK       I    between atoms: C_15  and  N_17 
REMARK    3  A    between atoms: N_25  and  C_26 
REMARK    4  A    between atoms: N_30  and  C_31 
REMARK    5  A    between atoms: C_31  and  C_32 
ROOT
HETATM    1  C   UNK N   1      37.695  34.559  49.034  0.00  0.00     0.069 A 
HETATM    2  C   UNK N   1      39.083  34.655  49.095  0.00  0.00     0.038 A 
HETATM    3  C   UNK N   1      39.696  35.662  49.843  0.00  0.00     0.018 A 
HETATM    4  C   UNK N   1      38.942  36.614  50.548  0.00  0.00     0.015 A 
HETATM    5  C   UNK N   1      37.534  36.481  50.513  0.00  0.00     0.074 A 
HETATM    6  C   UNK N   1      36.915  35.477  49.758  0.00  0.00     0.061 A 
HETATM    7  S   UNK N   1      36.563  37.588  51.492  0.00  0.00     0.180 S 
HETATM    8  O   UNK N   1      36.144  38.812  50.663  0.00  0.00    -0.222 OA
HETATM    9  O   UNK N   1      35.222  36.956  51.893  0.00  0.00    -0.222 OA
HETATM   10  C   UNK N   1      37.508  38.075  52.933  0.00  0.00     0.189 C 
HETATM   11  C   UNK N   1      38.901  38.364  52.440  0.00  0.00     0.019 A 
HETATM   12  C   UNK N   1      39.809  39.270  52.966  0.00  0.00     0.126 A 
HETATM   13  N   UNK N   1      40.930  39.233  52.226  0.00  0.00    -0.292 N 
ATOM     14  HN  UNK N   1      41.755  39.813  52.382  1.00  0.00     0.187 HD
HETATM   15  N   UNK N   1      40.805  38.330  51.261  0.00  0.00    -0.284 N 
HETATM   16  C   UNK N   1      39.573  37.727  51.381  0.00  0.00     0.072 A 
ENDROOT
BRANCH  15  17
HETATM   17  C   UNK N   1      41.856  38.257  50.220  0.00  0.00     0.137 C 
HETATM   18  C   UNK N   1      41.972  39.535  49.372  0.00  0.00     0.031 C 
HETATM   19  C   UNK N   1      43.034  39.327  48.289  0.00  0.00     0.032 C 
HETATM   20  C   UNK N   1      44.355  38.879  48.923  0.00  0.00     0.272 C 
HETATM   21  N   UNK N   1      44.170  37.573  49.598  0.00  0.00     0.090 N 
HETATM   22  C   UNK N   1      43.208  37.672  50.713  0.00  0.00     0.299 C 
BRANCH  21  23
HETATM   23  C   UNK N   1      45.467  36.996  50.031  0.00  0.00     0.279 C 
BRANCH  23  24
HETATM   24  C   UNK N   1      46.504  38.105  50.259  0.00  0.00     0.040 C 
HETATM   25  C   UNK N   1      47.804  37.951  49.530  0.00  0.00     0.035 C 
HETATM   26  C   UNK N   1      48.606  39.011  50.262  0.00  0.00     0.168 C 
HETATM   27  O   UNK N   1      48.227  38.962  51.627  0.00  0.00    -0.391 OA
HETATM   28  C   UNK N   1      47.035  38.200  51.682  0.00  0.00     0.173 C 
ENDBRANCH  23  24
ENDBRANCH  21  23
ENDBRANCH  15  17
BRANCH  12  29
HETATM   29  C   UNK N   1      39.602  40.166  54.151  0.00  0.00     0.272 C 
HETATM   30  O   UNK N   1      39.251  41.318  53.941  0.00  0.00    -0.266 OA
HETATM   31  N   UNK N   1      39.734  39.738  55.458  0.00  0.00    -0.343 N 
HETATM   32  C   UNK N   1      39.417  40.694  56.527  0.00  0.00     0.152 C 
HETATM   33  C   UNK N   1      39.944  38.315  55.762  0.00  0.00     0.152 C 
HETATM   34  C   UNK N   1      39.585  40.121  57.934  0.00  0.00     0.187 C 
HETATM   35  O   UNK N   1      39.086  38.801  57.981  0.00  0.00    -0.388 OA
HETATM   36  C   UNK N   1      40.003  38.003  57.263  0.00  0.00     0.187 C 
ENDBRANCH  12  29
BRANCH   1  37
HETATM   37  O   UNK N   1      37.147  33.569  48.282  0.00  0.00    -0.356 OA
HETATM   38  C   UNK N   1      36.289  33.760  47.220  0.00  0.00     0.210 C 
ENDBRANCH   1  37
TORSDOF 5
ENDMDL
MODEL 5
REMARK VINA RESULT:      -8.2      2.705      6.804
REMARK  5 active torsions:
REMARK  status: ('A' for Active; 'I' for Inactive)
REMARK    1  A    between atoms: O_2  and  C_3 
REMARK    2  A    between atoms: C_14  and  C_15 
REMARK       I    between atoms: C_15  and  N_17 
REMARK    3  A    between atoms: N_25  and  C_26 
REMARK    4  A    between atoms: N_30  and  C_31 
REMARK    5  A    between atoms: C_31  and  C_32 
ROOT
HETATM    1  C   UNK N   1      42.157  40.033  52.806  0.00  0.00     0.069 A 
HETATM    2  C   UNK N   1      40.927  39.382  52.879  0.00  0.00     0.038 A 
HETATM    3  C   UNK N   1      40.655  38.280  52.068  0.00  0.00     0.018 A 
HETATM    4  C   UNK N   1      41.598  37.795  51.148  0.00  0.00     0.015 A 
HETATM    5  C   UNK N   1      42.857  38.438  51.112  0.00  0.00     0.074 A 
HETATM    6  C   UNK N   1      43.133  39.549  51.919  0.00  0.00     0.061 A 
HETATM    7  S   UNK N   1      44.108  37.772  50.054  0.00  0.00     0.180 S 
HETATM    8  O   UNK N   1      44.078  38.466  48.684  0.00  0.00    -0.222 OA
HETATM    9  O   UNK N   1      45.517  38.087  50.580  0.00  0.00    -0.222 OA
HETATM   10  C   UNK N   1      43.857  36.007  49.892  0.00  0.00     0.189 C 
HETATM   11  C   UNK N   1      42.376  35.813  49.696  0.00  0.00     0.019 A 
HETATM   12  C   UNK N   1      41.746  34.803  48.985  0.00  0.00     0.126 A 
HETATM   13  N   UNK N   1      40.418  35.001  49.043  0.00  0.00    -0.292 N 
ATOM     14  HN  UNK N   1      39.718  34.415  48.589  1.00  0.00     0.187 HD
HETATM   15  N   UNK N   1      40.154  36.076  49.777  0.00  0.00    -0.284 N 
HETATM   16  C   UNK N   1      41.341  36.591  50.246  0.00  0.00     0.072 A 
ENDROOT
BRANCH  15  17
HETATM   17  C   UNK N   1      38.761  36.578  49.819  0.00  0.00     0.137 C 
HETATM   18  C   UNK N   1      38.036  36.273  51.141  0.00  0.00     0.031 C 
HETATM   19  C   UNK N   1      36.590  36.771  51.050  0.00  0.00     0.032 C 
HETATM   20  C   UNK N   1      36.566  38.251  50.653  0.00  0.00     0.272 C 
HETATM   21  N   UNK N   1      37.162  38.420  49.307  0.00  0.00     0.090 N 
HETATM   22  C   UNK N   1      38.585  38.029  49.294  0.00  0.00     0.299 C 
BRANCH  21  23
HETATM   23  C   UNK N   1      36.958  39.796  48.790  0.00  0.00     0.279 C 
BRANCH  23  24
HETATM   24  C   UNK N   1      35.572  39.929  48.141  0.00  0.00     0.040 C 
HETATM   25  C   UNK N   1      35.460  39.452  46.725  0.00  0.00     0.035 C 
HETATM   26  C   UNK N   1      34.106  40.047  46.388  0.00  0.00     0.168 C 
HETATM   27  O   UNK N   1      34.035  41.319  47.011  0.00  0.00    -0.391 OA
HETATM   28  C   UNK N   1      35.090  41.360  47.953  0.00  0.00     0.173 C 
ENDBRANCH  23  24
ENDBRANCH  21  23
ENDBRANCH  15  17
BRANCH  12  29
HETATM   29  C   UNK N   1      42.406  33.673  48.252  0.00  0.00     0.272 C 
HETATM   30  O   UNK N   1      42.678  32.663  48.885  0.00  0.00    -0.266 OA
HETATM   31  N   UNK N   1      42.668  33.700  46.896  0.00  0.00    -0.343 N 
HETATM   32  C   UNK N   1      43.238  32.491  46.284  0.00  0.00     0.152 C 
HETATM   33  C   UNK N   1      42.167  34.800  46.058  0.00  0.00     0.152 C 
HETATM   34  C   UNK N   1      43.480  32.618  44.781  0.00  0.00     0.187 C 
HETATM   35  O   UNK N   1      42.396  33.287  44.172  0.00  0.00    -0.388 OA
HETATM   36  C   UNK N   1      42.489  34.640  44.566  0.00  0.00     0.187 C 
ENDBRANCH  12  29
BRANCH   1  37
HETATM   37  O   UNK N   1      42.368  41.109  53.609  0.00  0.00    -0.356 OA
HETATM   38  C   UNK N   1      43.602  41.545  54.042  0.00  0.00     0.210 C 
ENDBRANCH   1  37
TORSDOF 5
ENDMDL
MODEL 6
REMARK VINA RESULT:      -7.9      3.084      7.741
REMARK  5 active torsions:
REMARK  status: ('A' for Active; 'I' for Inactive)
REMARK    1  A    between atoms: O_2  and  C_3 
REMARK    2  A    between atoms: C_14  and  C_15 
REMARK       I    between atoms: C_15  and  N_17 
REMARK    3  A    between atoms: N_25  and  C_26 
REMARK    4  A    between atoms: N_30  and  C_31 
REMARK    5  A    between atoms: C_31  and  C_32 
ROOT
HETATM    1  C   UNK N   1      40.946  39.565  51.829  0.00  0.00     0.069 A 
HETATM    2  C   UNK N   1      40.004  38.578  52.110  0.00  0.00     0.038 A 
HETATM    3  C   UNK N   1      39.999  37.375  51.403  0.00  0.00     0.018 A 
HETATM    4  C   UNK N   1      40.930  37.120  50.382  0.00  0.00     0.015 A 
HETATM    5  C   UNK N   1      41.907  38.112  50.135  0.00  0.00     0.074 A 
HETATM    6  C   UNK N   1      41.911  39.324  50.837  0.00  0.00     0.061 A 
HETATM    7  S   UNK N   1      43.168  37.768  48.943  0.00  0.00     0.180 S 
HETATM    8  O   UNK N   1      42.756  38.289  47.559  0.00  0.00    -0.222 OA
HETATM    9  O   UNK N   1      44.456  38.548  49.246  0.00  0.00    -0.222 OA
HETATM   10  C   UNK N   1      43.471  36.003  48.908  0.00  0.00     0.189 C 
HETATM   11  C   UNK N   1      42.116  35.347  48.935  0.00  0.00     0.019 A 
HETATM   12  C   UNK N   1      41.758  34.131  48.374  0.00  0.00     0.126 A 
HETATM   13  N   UNK N   1      40.453  33.917  48.611  0.00  0.00    -0.292 N 
ATOM     14  HN  UNK N   1      39.925  33.104  48.292  1.00  0.00     0.187 HD
HETATM   15  N   UNK N   1      39.951  34.921  49.321  0.00  0.00    -0.284 N 
HETATM   16  C   UNK N   1      40.962  35.817  49.588  0.00  0.00     0.072 A 
ENDROOT
BRANCH  15  17
HETATM   17  C   UNK N   1      38.487  34.972  49.536  0.00  0.00     0.137 C 
HETATM   18  C   UNK N   1      37.682  34.204  48.474  0.00  0.00     0.031 C 
HETATM   19  C   UNK N   1      36.185  34.381  48.750  0.00  0.00     0.032 C 
HETATM   20  C   UNK N   1      35.863  33.972  50.191  0.00  0.00     0.272 C 
HETATM   21  N   UNK N   1      36.581  34.859  51.137  0.00  0.00     0.090 N 
HETATM   22  C   UNK N   1      38.044  34.721  51.003  0.00  0.00     0.299 C 
BRANCH  21  23
HETATM   23  C   UNK N   1      36.127  34.646  52.534  0.00  0.00     0.279 C 
BRANCH  23  24
HETATM   24  C   UNK N   1      37.216  33.940  53.355  0.00  0.00     0.040 C 
HETATM   25  C   UNK N   1      36.799  32.683  54.055  0.00  0.00     0.035 C 
HETATM   26  C   UNK N   1      38.003  32.514  54.963  0.00  0.00     0.168 C 
HETATM   27  O   UNK N   1      38.389  33.807  55.399  0.00  0.00    -0.391 OA
HETATM   28  C   UNK N   1      37.723  34.727  54.554  0.00  0.00     0.173 C 
ENDBRANCH  23  24
ENDBRANCH  21  23
ENDBRANCH  15  17
BRANCH  12  29
HETATM   29  C   UNK N   1      42.649  33.196  47.611  0.00  0.00     0.272 C 
HETATM   30  O   UNK N   1      43.276  32.360  48.246  0.00  0.00    -0.266 OA
HETATM   31  N   UNK N   1      42.750  33.199  46.234  0.00  0.00    -0.343 N 
HETATM   32  C   UNK N   1      43.591  32.171  45.606  0.00  0.00     0.152 C 
HETATM   33  C   UNK N   1      41.858  34.038  45.420  0.00  0.00     0.152 C 
HETATM   34  C   UNK N   1      43.628  32.254  44.080  0.00  0.00     0.187 C 
HETATM   35  O   UNK N   1      42.337  32.527  43.580  0.00  0.00    -0.388 OA
HETATM   36  C   UNK N   1      42.058  33.872  43.907  0.00  0.00     0.187 C 
ENDBRANCH  12  29
BRANCH   1  37
HETATM   37  O   UNK N   1      40.900  40.723  52.538  0.00  0.00    -0.356 OA
HETATM   38  C   UNK N   1      40.746  40.811  53.905  0.00  0.00     0.210 C 
ENDBRANCH   1  37
TORSDOF 5
ENDMDL
MODEL 7
REMARK VINA RESULT:      -7.9      3.670      7.180
REMARK  5 active torsions:
REMARK  status: ('A' for Active; 'I' for Inactive)
REMARK    1  A    between atoms: O_2  and  C_3 
REMARK    2  A    between atoms: C_14  and  C_15 
REMARK       I    between atoms: C_15  and  N_17 
REMARK    3  A    between atoms: N_25  and  C_26 
REMARK    4  A    between atoms: N_30  and  C_31 
REMARK    5  A    between atoms: C_31  and  C_32 
ROOT
HETATM    1  C   UNK N   1      35.261  40.414  48.446  0.00  0.00     0.069 A 
HETATM    2  C   UNK N   1      36.227  39.547  47.943  0.00  0.00     0.038 A 
HETATM    3  C   UNK N   1      36.929  38.691  48.792  0.00  0.00     0.018 A 
HETATM    4  C   UNK N   1      36.696  38.678  50.177  0.00  0.00     0.015 A 
HETATM    5  C   UNK N   1      35.683  39.533  50.671  0.00  0.00     0.074 A 
HETATM    6  C   UNK N   1      34.982  40.399  49.823  0.00  0.00     0.061 A 
HETATM    7  S   UNK N   1      35.281  39.448  52.391  0.00  0.00     0.180 S 
HETATM    8  O   UNK N   1      36.091  40.484  53.184  0.00  0.00    -0.222 OA
HETATM    9  O   UNK N   1      33.825  39.864  52.650  0.00  0.00    -0.222 OA
HETATM   10  C   UNK N   1      35.596  37.788  52.984  0.00  0.00     0.189 C 
HETATM   11  C   UNK N   1      36.920  37.379  52.392  0.00  0.00     0.019 A 
HETATM   12  C   UNK N   1      37.853  36.512  52.938  0.00  0.00     0.126 A 
HETATM   13  N   UNK N   1      38.902  36.428  52.101  0.00  0.00    -0.292 N 
ATOM     14  HN  UNK N   1      39.741  35.872  52.267  1.00  0.00     0.187 HD
HETATM   15  N   UNK N   1      38.683  37.177  51.026  0.00  0.00    -0.284 N 
HETATM   16  C   UNK N   1      37.438  37.755  51.140  0.00  0.00     0.072 A 
ENDROOT
BRANCH  15  17
HETATM   17  C   UNK N   1      39.791  37.370  50.062  0.00  0.00     0.137 C 
HETATM   18  C   UNK N   1      40.368  38.796  50.066  0.00  0.00     0.031 C 
HETATM   19  C   UNK N   1      41.453  38.903  48.990  0.00  0.00     0.032 C 
HETATM   20  C   UNK N   1      42.503  37.806  49.188  0.00  0.00     0.272 C 
HETATM   21  N   UNK N   1      41.874  36.474  49.030  0.00  0.00     0.090 N 
HETATM   22  C   UNK N   1      40.849  36.234  50.065  0.00  0.00     0.299 C 
BRANCH  21  23
HETATM   23  C   UNK N   1      42.890  35.393  48.991  0.00  0.00     0.279 C 
BRANCH  23  24
HETATM   24  C   UNK N   1      42.906  34.716  47.612  0.00  0.00     0.040 C 
HETATM   25  C   UNK N   1      41.780  33.768  47.332  0.00  0.00     0.035 C 
HETATM   26  C   UNK N   1      42.337  33.109  46.084  0.00  0.00     0.168 C 
HETATM   27  O   UNK N   1      43.734  32.955  46.275  0.00  0.00    -0.391 OA
HETATM   28  C   UNK N   1      44.078  33.773  47.378  0.00  0.00     0.173 C 
ENDBRANCH  23  24
ENDBRANCH  21  23
ENDBRANCH  15  17
BRANCH  12  29
HETATM   29  C   UNK N   1      37.750  35.786  54.247  0.00  0.00     0.272 C 
HETATM   30  O   UNK N   1      38.016  36.406  55.266  0.00  0.00    -0.266 OA
HETATM   31  N   UNK N   1      37.319  34.478  54.356  0.00  0.00    -0.343 N 
HETATM   32  C   UNK N   1      37.180  33.914  55.705  0.00  0.00     0.152 C 
HETATM   33  C   UNK N   1      36.787  33.766  53.185  0.00  0.00     0.152 C 
HETATM   34  C   UNK N   1      36.687  32.467  55.719  0.00  0.00     0.187 C 
HETATM   35  O   UNK N   1      35.666  32.296  54.760  0.00  0.00    -0.388 OA
HETATM   36  C   UNK N   1      36.291  32.347  53.496  0.00  0.00     0.187 C 
ENDBRANCH  12  29
BRANCH   1  37
HETATM   37  O   UNK N   1      34.614  41.237  47.579  0.00  0.00    -0.356 OA
HETATM   38  C   UNK N   1      34.116  40.860  46.350  0.00  0.00     0.210 C 
ENDBRANCH   1  37
TORSDOF 5
ENDMDL
MODEL 8
REMARK VINA RESULT:      -7.6      3.991      7.993
REMARK  5 active torsions:
REMARK  status: ('A' for Active; 'I' for Inactive)
REMARK    1  A    between atoms: O_2  and  C_3 
REMARK    2  A    between atoms: C_14  and  C_15 
REMARK       I    between atoms: C_15  and  N_17 
REMARK    3  A    between atoms: N_25  and  C_26 
REMARK    4  A    between atoms: N_30  and  C_31 
REMARK    5  A    between atoms: C_31  and  C_32 
ROOT
HETATM    1  C   UNK N   1      46.191  37.921  50.362  0.00  0.00     0.069 A 
HETATM    2  C   UNK N   1      45.902  37.790  51.718  0.00  0.00     0.038 A 
HETATM    3  C   UNK N   1      44.593  37.924  52.185  0.00  0.00     0.018 A 
HETATM    4  C   UNK N   1      43.528  38.203  51.312  0.00  0.00     0.015 A 
HETATM    5  C   UNK N   1      43.828  38.291  49.933  0.00  0.00     0.074 A 
HETATM    6  C   UNK N   1      45.140  38.165  49.461  0.00  0.00     0.061 A 
HETATM    7  S   UNK N   1      42.490  38.516  48.798  0.00  0.00     0.180 S 
HETATM    8  O   UNK N   1      42.271  40.009  48.515  0.00  0.00    -0.222 OA
HETATM    9  O   UNK N   1      42.823  37.938  47.414  0.00  0.00    -0.222 OA
HETATM   10  C   UNK N   1      41.015  37.762  49.478  0.00  0.00     0.189 C 
HETATM   11  C   UNK N   1      40.980  38.152  50.932  0.00  0.00     0.019 A 
HETATM   12  C   UNK N   1      39.859  38.333  51.727  0.00  0.00     0.126 A 
HETATM   13  N   UNK N   1      40.261  38.691  52.959  0.00  0.00    -0.292 N 
ATOM     14  HN  UNK N   1      39.639  38.906  53.739  1.00  0.00     0.187 HD
HETATM   15  N   UNK N   1      41.587  38.726  53.009  0.00  0.00    -0.284 N 
HETATM   16  C   UNK N   1      42.083  38.352  51.781  0.00  0.00     0.072 A 
ENDROOT
BRANCH  15  17
HETATM   17  C   UNK N   1      42.235  39.274  54.224  0.00  0.00     0.137 C 
HETATM   18  C   UNK N   1      43.135  40.490  53.946  0.00  0.00     0.031 C 
HETATM   19  C   UNK N   1      43.805  40.930  55.251  0.00  0.00     0.032 C 
HETATM   20  C   UNK N   1      42.746  41.174  56.332  0.00  0.00     0.272 C 
HETATM   21  N   UNK N   1      42.027  39.912  56.624  0.00  0.00     0.090 N 
HETATM   22  C   UNK N   1      41.286  39.426  55.444  0.00  0.00     0.299 C 
BRANCH  21  23
HETATM   23  C   UNK N   1      41.152  40.046  57.815  0.00  0.00     0.279 C 
BRANCH  23  24
HETATM   24  C   UNK N   1      40.677  41.498  57.976  0.00  0.00     0.040 C 
HETATM   25  C   UNK N   1      40.419  41.954  59.379  0.00  0.00     0.035 C 
HETATM   26  C   UNK N   1      39.688  43.247  59.072  0.00  0.00     0.168 C 
HETATM   27  O   UNK N   1      38.863  43.009  57.943  0.00  0.00    -0.391 OA
HETATM   28  C   UNK N   1      39.312  41.794  57.372  0.00  0.00     0.173 C 
ENDBRANCH  23  24
ENDBRANCH  21  23
ENDBRANCH  15  17
BRANCH  12  29
HETATM   29  C   UNK N   1      38.426  38.179  51.312  0.00  0.00     0.272 C 
HETATM   30  O   UNK N   1      37.966  39.000  50.532  0.00  0.00    -0.266 OA
HETATM   31  N   UNK N   1      37.626  37.131  51.723  0.00  0.00    -0.343 N 
HETATM   32  C   UNK N   1      36.267  37.050  51.173  0.00  0.00     0.152 C 
HETATM   33  C   UNK N   1      38.195  36.009  52.485  0.00  0.00     0.152 C 
HETATM   34  C   UNK N   1      35.467  35.850  51.681  0.00  0.00     0.187 C 
HETATM   35  O   UNK N   1      36.292  34.705  51.727  0.00  0.00    -0.388 OA
HETATM   36  C   UNK N   1      37.185  34.899  52.803  0.00  0.00     0.187 C 
ENDBRANCH  12  29
BRANCH   1  37
HETATM   37  O   UNK N   1      47.483  37.793  49.960  0.00  0.00    -0.356 OA
HETATM   38  C   UNK N   1      48.314  38.839  49.618  0.00  0.00     0.210 C 
ENDBRANCH   1  37
TORSDOF 5
ENDMDL
MODEL 9
REMARK VINA RESULT:      -7.5      3.517      6.755
REMARK  5 active torsions:
REMARK  status: ('A' for Active; 'I' for Inactive)
REMARK    1  A    between atoms: O_2  and  C_3 
REMARK    2  A    between atoms: C_14  and  C_15 
REMARK       I    between atoms: C_15  and  N_17 
REMARK    3  A    between atoms: N_25  and  C_26 
REMARK    4  A    between atoms: N_30  and  C_31 
REMARK    5  A    between atoms: C_31  and  C_32 
ROOT
HETATM    1  C   UNK N   1      36.801  34.480  49.455  0.00  0.00     0.069 A 
HETATM    2  C   UNK N   1      38.190  34.528  49.361  0.00  0.00     0.038 A 
HETATM    3  C   UNK N   1      38.914  35.525  50.015  0.00  0.00     0.018 A 
HETATM    4  C   UNK N   1      38.274  36.517  50.778  0.00  0.00     0.015 A 
HETATM    5  C   UNK N   1      36.868  36.433  50.900  0.00  0.00     0.074 A 
HETATM    6  C   UNK N   1      36.137  35.438  50.240  0.00  0.00     0.061 A 
HETATM    7  S   UNK N   1      36.048  37.591  51.955  0.00  0.00     0.180 S 
HETATM    8  O   UNK N   1      35.581  38.813  51.151  0.00  0.00    -0.222 OA
HETATM    9  O   UNK N   1      34.739  37.014  52.515  0.00  0.00    -0.222 OA
HETATM   10  C   UNK N   1      37.162  38.070  53.273  0.00  0.00     0.189 C 
HETATM   11  C   UNK N   1      38.501  38.301  52.623  0.00  0.00     0.019 A 
HETATM   12  C   UNK N   1      39.490  39.184  53.027  0.00  0.00     0.126 A 
HETATM   13  N   UNK N   1      40.521  39.094  52.170  0.00  0.00    -0.292 N 
ATOM     14  HN  UNK N   1      41.377  39.648  52.221  1.00  0.00     0.187 HD
HETATM   15  N   UNK N   1      40.261  38.178  51.244  0.00  0.00    -0.284 N 
HETATM   16  C   UNK N   1      39.030  37.622  51.511  0.00  0.00     0.072 A 
ENDROOT
BRANCH  15  17
HETATM   17  C   UNK N   1      41.188  38.049  50.096  0.00  0.00     0.137 C 
HETATM   18  C   UNK N   1      41.876  39.370  49.710  0.00  0.00     0.031 C 
HETATM   19  C   UNK N   1      42.753  39.139  48.475  0.00  0.00     0.032 C 
HETATM   20  C   UNK N   1      43.724  37.981  48.727  0.00  0.00     0.272 C 
HETATM   21  N   UNK N   1      42.965  36.729  48.953  0.00  0.00     0.090 N 
HETATM   22  C   UNK N   1      42.128  36.816  50.165  0.00  0.00     0.299 C 
BRANCH  21  23
HETATM   23  C   UNK N   1      43.861  35.546  48.977  0.00  0.00     0.279 C 
BRANCH  23  24
HETATM   24  C   UNK N   1      43.497  34.568  47.851  0.00  0.00     0.040 C 
HETATM   25  C   UNK N   1      42.093  34.652  47.335  0.00  0.00     0.035 C 
HETATM   26  C   UNK N   1      42.065  33.367  46.529  0.00  0.00     0.168 C 
HETATM   27  O   UNK N   1      42.792  32.393  47.260  0.00  0.00    -0.391 OA
HETATM   28  C   UNK N   1      43.520  33.099  48.248  0.00  0.00     0.173 C 
ENDBRANCH  23  24
ENDBRANCH  21  23
ENDBRANCH  15  17
BRANCH  12  29
HETATM   29  C   UNK N   1      39.445  40.108  54.208  0.00  0.00     0.272 C 
HETATM   30  O   UNK N   1      39.157  41.279  54.005  0.00  0.00    -0.266 OA
HETATM   31  N   UNK N   1      39.657  39.689  55.507  0.00  0.00    -0.343 N 
HETATM   32  C   UNK N   1      39.496  40.680  56.580  0.00  0.00     0.152 C 
HETATM   33  C   UNK N   1      39.793  38.259  55.820  0.00  0.00     0.152 C 
HETATM   34  C   UNK N   1      39.742  40.116  57.979  0.00  0.00     0.187 C 
HETATM   35  O   UNK N   1      39.160  38.835  58.092  0.00  0.00    -0.388 OA
HETATM   36  C   UNK N   1      39.956  37.964  57.317  0.00  0.00     0.187 C 
ENDBRANCH  12  29
BRANCH   1  37
HETATM   37  O   UNK N   1      36.141  33.495  48.790  0.00  0.00    -0.356 OA
HETATM   38  C   UNK N   1      36.165  32.158  49.123  0.00  0.00     0.210 C 
ENDBRANCH   1  37
TORSDOF 5
ENDMDL
