MODEL 1
REMARK VINA RESULT:      -8.1      0.000      0.000
REMARK  6 active torsions:
REMARK  status: ('A' for Active; 'I' for Inactive)
REMARK    1  A    between atoms: O_2  and  C_3 
REMARK    2  A    between atoms: C_14  and  C_15 
REMARK       I    between atoms: C_15  and  N_17 
REMARK    3  A    between atoms: N_25  and  C_26 
REMARK    4  A    between atoms: N_30  and  C_31 
REMARK    5  A    between atoms: C_31  and  C_32 
REMARK    6  A    between atoms: C_32  and  N_33 
ROOT
HETATM    1  C   UNK N   1      42.314  40.110  56.233  0.00  0.00     0.090 A 
HETATM    2  C   UNK N   1      43.560  40.642  55.853  0.00  0.00     0.038 A 
HETATM    3  C   UNK N   1      43.905  40.725  54.506  0.00  0.00     0.004 A 
HETATM    4  C   UNK N   1      43.038  40.252  53.522  0.00  0.00     0.015 A 
HETATM    5  C   UNK N   1      41.794  39.686  53.869  0.00  0.00     0.017 A 
HETATM    6  C   UNK N   1      41.432  39.661  55.236  0.00  0.00     0.105 A 
HETATM    7  S   UNK N   1      39.807  39.064  55.644  0.00  0.00     0.183 S 
HETATM    8  O   UNK N   1      39.860  37.577  56.023  0.00  0.00    -0.222 OA
HETATM    9  O   UNK N   1      39.258  39.725  56.917  0.00  0.00    -0.222 OA
HETATM   10  C   UNK N   1      38.680  39.328  54.271  0.00  0.00     0.189 C 
HETATM   11  C   UNK N   1      39.453  39.003  53.018  0.00  0.00     0.019 A 
HETATM   12  C   UNK N   1      38.976  38.422  51.848  0.00  0.00     0.126 A 
HETATM   13  N   UNK N   1      40.018  38.209  51.021  0.00  0.00    -0.292 N 
ATOM     14  HN  UNK N   1      39.957  37.799  50.090  1.00  0.00     0.187 HD
HETATM   15  N   UNK N   1      41.136  38.617  51.610  0.00  0.00    -0.284 N 
HETATM   16  C   UNK N   1      40.834  39.138  52.834  0.00  0.00     0.072 A 
ENDROOT
BRANCH  15  17
HETATM   17  C   UNK N   1      42.456  38.317  51.025  0.00  0.00     0.137 C 
HETATM   18  C   UNK N   1      42.927  36.890  51.437  0.00  0.00     0.031 C 
HETATM   19  C   UNK N   1      42.623  35.890  50.321  0.00  0.00     0.032 C 
HETATM   20  C   UNK N   1      43.441  36.288  49.061  0.00  0.00     0.272 C 
HETATM   21  N   UNK N   1      43.498  37.763  48.823  0.00  0.00     0.092 N 
HETATM   22  C   UNK N   1      42.392  38.474  49.486  0.00  0.00     0.299 C 
BRANCH  21  23
HETATM   23  C   UNK N   1      44.824  38.355  49.123  0.00  0.00     0.302 C 
BRANCH  23  24
HETATM   24  C   UNK N   1      45.853  37.239  49.324  0.00  0.00     0.302 C 
BRANCH  24  25
HETATM   25  N   UNK N   1      46.801  37.586  50.403  0.00  0.00     0.094 N 
HETATM   26  C   UNK N   1      47.833  38.542  49.947  0.00  0.00     0.298 C 
HETATM   27  C   UNK N   1      48.772  38.875  51.111  0.00  0.00     0.198 C 
HETATM   28  O   UNK N   1      48.048  39.435  52.190  0.00  0.00    -0.388 OA
HETATM   29  C   UNK N   1      47.102  38.493  52.662  0.00  0.00     0.198 C 
HETATM   30  C   UNK N   1      46.089  38.151  51.563  0.00  0.00     0.298 C 
ENDBRANCH  24  25
ENDBRANCH  23  24
ENDBRANCH  21  23
ENDBRANCH  15  17
BRANCH  12  31
HETATM   31  C   UNK N   1      37.554  38.015  51.576  0.00  0.00     0.272 C 
HETATM   32  O   UNK N   1      36.815  38.847  51.072  0.00  0.00    -0.266 OA
HETATM   33  N   UNK N   1      37.031  36.779  51.901  0.00  0.00    -0.343 N 
HETATM   34  C   UNK N   1      37.852  35.751  52.553  0.00  0.00     0.152 C 
HETATM   35  C   UNK N   1      35.578  36.601  51.767  0.00  0.00     0.152 C 
HETATM   36  C   UNK N   1      37.102  34.439  52.797  0.00  0.00     0.187 C 
HETATM   37  O   UNK N   1      35.787  34.698  53.243  0.00  0.00    -0.388 OA
HETATM   38  C   UNK N   1      35.080  35.202  52.130  0.00  0.00     0.187 C 
ENDBRANCH  12  31
BRANCH   1  39
HETATM   39  O   UNK N   1      41.940  40.012  57.537  0.00  0.00    -0.354 OA
HETATM   40  C   UNK N   1      42.294  40.893  58.538  0.00  0.00     0.210 C 
ENDBRANCH   1  39
TORSDOF 6
ENDMDL
MODEL 2
REMARK VINA RESULT:      -7.8      3.385      4.513
REMARK  6 active torsions:
REMARK  status: ('A' for Active; 'I' for Inactive)
REMARK    1  A    between atoms: O_2  and  C_3 
REMARK    2  A    between atoms: C_14  and  C_15 
REMARK       I    between atoms: C_15  and  N_17 
REMARK    3  A    between atoms: N_25  and  C_26 
REMARK    4  A    between atoms: N_30  and  C_31 
REMARK    5  A    between atoms: C_31  and  C_32 
REMARK    6  A    between atoms: C_32  and  N_33 
ROOT
HETATM    1  C   UNK N   1      44.553  38.977  53.099  0.00  0.00     0.090 A 
HETATM    2  C   UNK N   1      45.708  38.419  52.519  0.00  0.00     0.038 A 
HETATM    3  C   UNK N   1      45.636  37.799  51.273  0.00  0.00     0.004 A 
HETATM    4  C   UNK N   1      44.417  37.693  50.603  0.00  0.00     0.015 A 
HETATM    5  C   UNK N   1      43.236  38.215  51.169  0.00  0.00     0.017 A 
HETATM    6  C   UNK N   1      43.333  38.893  52.406  0.00  0.00     0.105 A 
HETATM    7  S   UNK N   1      41.859  39.658  53.041  0.00  0.00     0.183 S 
HETATM    8  O   UNK N   1      41.157  38.726  54.040  0.00  0.00    -0.222 OA
HETATM    9  O   UNK N   1      42.179  40.897  53.892  0.00  0.00    -0.222 OA
HETATM   10  C   UNK N   1      40.751  40.095  51.697  0.00  0.00     0.189 C 
HETATM   11  C   UNK N   1      40.803  38.952  50.716  0.00  0.00     0.019 A 
HETATM   12  C   UNK N   1      39.769  38.460  49.926  0.00  0.00     0.126 A 
HETATM   13  N   UNK N   1      40.213  37.366  49.276  0.00  0.00    -0.292 N 
ATOM     14  HN  UNK N   1      39.665  36.806  48.623  1.00  0.00     0.187 HD
HETATM   15  N   UNK N   1      41.474  37.133  49.620  0.00  0.00    -0.284 N 
HETATM   16  C   UNK N   1      41.889  38.100  50.486  0.00  0.00     0.072 A 
ENDROOT
BRANCH  15  17
HETATM   17  C   UNK N   1      42.151  35.884  49.224  0.00  0.00     0.137 C 
HETATM   18  C   UNK N   1      41.211  34.659  49.438  0.00  0.00     0.031 C 
HETATM   19  C   UNK N   1      40.539  34.271  48.121  0.00  0.00     0.032 C 
HETATM   20  C   UNK N   1      41.638  33.825  47.115  0.00  0.00     0.272 C 
HETATM   21  N   UNK N   1      42.875  34.662  47.168  0.00  0.00     0.092 N 
HETATM   22  C   UNK N   1      42.622  35.990  47.752  0.00  0.00     0.299 C 
BRANCH  21  23
HETATM   23  C   UNK N   1      44.026  33.968  47.795  0.00  0.00     0.302 C 
BRANCH  23  24
HETATM   24  C   UNK N   1      43.962  32.473  47.474  0.00  0.00     0.302 C 
BRANCH  24  25
HETATM   25  N   UNK N   1      45.290  31.966  47.064  0.00  0.00     0.094 N 
HETATM   26  C   UNK N   1      45.894  32.795  46.000  0.00  0.00     0.298 C 
HETATM   27  C   UNK N   1      47.271  32.231  45.632  0.00  0.00     0.198 C 
HETATM   28  O   UNK N   1      48.120  32.215  46.763  0.00  0.00    -0.388 OA
HETATM   29  C   UNK N   1      47.566  31.371  47.757  0.00  0.00     0.198 C 
HETATM   30  C   UNK N   1      46.205  31.906  48.218  0.00  0.00     0.298 C 
ENDBRANCH  24  25
ENDBRANCH  23  24
ENDBRANCH  21  23
ENDBRANCH  15  17
BRANCH  12  31
HETATM   31  C   UNK N   1      38.365  38.995  49.867  0.00  0.00     0.272 C 
HETATM   32  O   UNK N   1      38.088  39.753  48.949  0.00  0.00    -0.266 OA
HETATM   33  N   UNK N   1      37.394  38.715  50.808  0.00  0.00    -0.343 N 
HETATM   34  C   UNK N   1      37.675  37.851  51.961  0.00  0.00     0.152 C 
HETATM   35  C   UNK N   1      36.138  39.475  50.732  0.00  0.00     0.152 C 
HETATM   36  C   UNK N   1      36.461  37.633  52.867  0.00  0.00     0.187 C 
HETATM   37  O   UNK N   1      35.744  38.838  53.030  0.00  0.00    -0.388 OA
HETATM   38  C   UNK N   1      35.108  39.096  51.796  0.00  0.00     0.187 C 
ENDBRANCH  12  31
BRANCH   1  39
HETATM   39  O   UNK N   1      44.582  39.591  54.312  0.00  0.00    -0.354 OA
HETATM   40  C   UNK N   1      45.569  40.450  54.750  0.00  0.00     0.210 C 
ENDBRANCH   1  39
TORSDOF 6
ENDMDL
MODEL 3
REMARK VINA RESULT:      -7.5      3.017      5.919
REMARK  6 active torsions:
REMARK  status: ('A' for Active; 'I' for Inactive)
REMARK    1  A    between atoms: O_2  and  C_3 
REMARK    2  A    between atoms: C_14  and  C_15 
REMARK       I    between atoms: C_15  and  N_17 
REMARK    3  A    between atoms: N_25  and  C_26 
REMARK    4  A    between atoms: N_30  and  C_31 
REMARK    5  A    between atoms: C_31  and  C_32 
REMARK    6  A    between atoms: C_32  and  N_33 
ROOT
HETATM    1  C   UNK N   1      45.059  38.397  51.904  0.00  0.00     0.090 A 
HETATM    2  C   UNK N   1      45.106  37.673  50.698  0.00  0.00     0.038 A 
HETATM    3  C   UNK N   1      43.933  37.410  49.993  0.00  0.00     0.004 A 
HETATM    4  C   UNK N   1      42.698  37.829  50.489  0.00  0.00     0.015 A 
HETATM    5  C   UNK N   1      42.612  38.530  51.709  0.00  0.00     0.017 A 
HETATM    6  C   UNK N   1      43.815  38.841  52.385  0.00  0.00     0.105 A 
HETATM    7  S   UNK N   1      43.698  39.839  53.852  0.00  0.00     0.183 S 
HETATM    8  O   UNK N   1      43.669  38.950  55.105  0.00  0.00    -0.222 OA
HETATM    9  O   UNK N   1      44.957  40.693  54.065  0.00  0.00    -0.222 OA
HETATM   10  C   UNK N   1      42.239  40.884  53.785  0.00  0.00     0.189 C 
HETATM   11  C   UNK N   1      41.138  40.038  53.198  0.00  0.00     0.019 A 
HETATM   12  C   UNK N   1      39.782  40.072  53.507  0.00  0.00     0.126 A 
HETATM   13  N   UNK N   1      39.166  39.079  52.835  0.00  0.00    -0.292 N 
ATOM     14  HN  UNK N   1      38.169  38.875  52.870  1.00  0.00     0.187 HD
HETATM   15  N   UNK N   1      40.064  38.410  52.123  0.00  0.00    -0.284 N 
HETATM   16  C   UNK N   1      41.291  38.981  52.294  0.00  0.00     0.072 A 
ENDROOT
BRANCH  15  17
HETATM   17  C   UNK N   1      39.713  37.144  51.452  0.00  0.00     0.137 C 
HETATM   18  C   UNK N   1      38.549  36.430  52.203  0.00  0.00     0.031 C 
HETATM   19  C   UNK N   1      37.215  36.728  51.520  0.00  0.00     0.032 C 
HETATM   20  C   UNK N   1      37.251  36.139  50.082  0.00  0.00     0.272 C 
HETATM   21  N   UNK N   1      38.564  36.321  49.391  0.00  0.00     0.092 N 
HETATM   22  C   UNK N   1      39.348  37.423  49.972  0.00  0.00     0.299 C 
BRANCH  21  23
HETATM   23  C   UNK N   1      39.341  35.064  49.270  0.00  0.00     0.302 C 
BRANCH  23  24
HETATM   24  C   UNK N   1      40.751  35.377  48.760  0.00  0.00     0.302 C 
BRANCH  24  25
HETATM   25  N   UNK N   1      41.438  34.143  48.323  0.00  0.00     0.094 N 
HETATM   26  C   UNK N   1      41.823  34.200  46.897  0.00  0.00     0.298 C 
HETATM   27  C   UNK N   1      42.544  32.905  46.510  0.00  0.00     0.198 C 
HETATM   28  O   UNK N   1      43.698  32.721  47.307  0.00  0.00    -0.388 OA
HETATM   29  C   UNK N   1      43.318  32.606  48.666  0.00  0.00     0.198 C 
HETATM   30  C   UNK N   1      42.637  33.894  49.144  0.00  0.00     0.298 C 
ENDBRANCH  24  25
ENDBRANCH  23  24
ENDBRANCH  21  23
ENDBRANCH  15  17
BRANCH  12  31
HETATM   31  C   UNK N   1      39.118  40.997  54.489  0.00  0.00     0.272 C 
HETATM   32  O   UNK N   1      38.595  42.010  54.046  0.00  0.00    -0.266 OA
HETATM   33  N   UNK N   1      39.105  40.791  55.854  0.00  0.00    -0.343 N 
HETATM   34  C   UNK N   1      39.757  39.621  56.455  0.00  0.00     0.152 C 
HETATM   35  C   UNK N   1      38.603  41.884  56.700  0.00  0.00     0.152 C 
HETATM   36  C   UNK N   1      39.600  39.552  57.976  0.00  0.00     0.187 C 
HETATM   37  O   UNK N   1      39.757  40.834  58.547  0.00  0.00    -0.388 OA
HETATM   38  C   UNK N   1      38.606  41.572  58.197  0.00  0.00     0.187 C 
ENDBRANCH  12  31
BRANCH   1  39
HETATM   39  O   UNK N   1      46.181  38.674  52.621  0.00  0.00    -0.354 OA
HETATM   40  C   UNK N   1      47.474  38.456  52.197  0.00  0.00     0.210 C 
ENDBRANCH   1  39
TORSDOF 6
ENDMDL
MODEL 4
REMARK VINA RESULT:      -7.4      3.999      8.806
REMARK  6 active torsions:
REMARK  status: ('A' for Active; 'I' for Inactive)
REMARK    1  A    between atoms: O_2  and  C_3 
REMARK    2  A    between atoms: C_14  and  C_15 
REMARK       I    between atoms: C_15  and  N_17 
REMARK    3  A    between atoms: N_25  and  C_26 
REMARK    4  A    between atoms: N_30  and  C_31 
REMARK    5  A    between atoms: C_31  and  C_32 
REMARK    6  A    between atoms: C_32  and  N_33 
ROOT
HETATM    1  C   UNK N   1      40.060  38.863  51.918  0.00  0.00     0.090 A 
HETATM    2  C   UNK N   1      39.179  38.578  52.978  0.00  0.00     0.038 A 
HETATM    3  C   UNK N   1      38.520  37.351  53.030  0.00  0.00     0.004 A 
HETATM    4  C   UNK N   1      38.700  36.406  52.021  0.00  0.00     0.015 A 
HETATM    5  C   UNK N   1      39.553  36.670  50.930  0.00  0.00     0.017 A 
HETATM    6  C   UNK N   1      40.259  37.896  50.918  0.00  0.00     0.105 A 
HETATM    7  S   UNK N   1      41.429  38.157  49.604  0.00  0.00     0.183 S 
HETATM    8  O   UNK N   1      40.784  38.955  48.461  0.00  0.00    -0.222 OA
HETATM    9  O   UNK N   1      42.590  39.062  50.044  0.00  0.00    -0.222 OA
HETATM   10  C   UNK N   1      42.058  36.586  49.003  0.00  0.00     0.189 C 
HETATM   11  C   UNK N   1      40.881  35.644  48.967  0.00  0.00     0.019 A 
HETATM   12  C   UNK N   1      40.632  34.627  48.052  0.00  0.00     0.126 A 
HETATM   13  N   UNK N   1      39.420  34.101  48.317  0.00  0.00    -0.292 N 
ATOM     14  HN  UNK N   1      38.985  33.335  47.805  1.00  0.00     0.187 HD
HETATM   15  N   UNK N   1      38.882  34.739  49.350  0.00  0.00    -0.284 N 
HETATM   16  C   UNK N   1      39.757  35.683  49.800  0.00  0.00     0.072 A 
ENDROOT
BRANCH  15  17
HETATM   17  C   UNK N   1      37.474  34.517  49.731  0.00  0.00     0.137 C 
HETATM   18  C   UNK N   1      36.625  34.119  48.487  0.00  0.00     0.031 C 
HETATM   19  C   UNK N   1      36.457  32.601  48.424  0.00  0.00     0.032 C 
HETATM   20  C   UNK N   1      35.663  32.138  49.678  0.00  0.00     0.272 C 
HETATM   21  N   UNK N   1      36.053  32.850  50.932  0.00  0.00     0.092 N 
HETATM   22  C   UNK N   1      37.400  33.439  50.841  0.00  0.00     0.299 C 
BRANCH  21  23
HETATM   23  C   UNK N   1      35.032  33.820  51.398  0.00  0.00     0.302 C 
BRANCH  23  24
HETATM   24  C   UNK N   1      34.984  33.822  52.928  0.00  0.00     0.302 C 
BRANCH  24  25
HETATM   25  N   UNK N   1      34.761  35.189  53.445  0.00  0.00     0.094 N 
HETATM   26  C   UNK N   1      35.049  36.220  52.425  0.00  0.00     0.298 C 
HETATM   27  C   UNK N   1      34.784  37.610  53.014  0.00  0.00     0.198 C 
HETATM   28  O   UNK N   1      33.439  37.722  53.438  0.00  0.00    -0.388 OA
HETATM   29  C   UNK N   1      33.186  36.773  54.457  0.00  0.00     0.198 C 
HETATM   30  C   UNK N   1      33.376  35.347  53.924  0.00  0.00     0.298 C 
ENDBRANCH  24  25
ENDBRANCH  23  24
ENDBRANCH  21  23
ENDBRANCH  15  17
BRANCH  12  31
HETATM   31  C   UNK N   1      41.516  34.231  46.902  0.00  0.00     0.272 C 
HETATM   32  O   UNK N   1      41.211  34.636  45.789  0.00  0.00    -0.266 OA
HETATM   33  N   UNK N   1      42.618  33.408  47.026  0.00  0.00    -0.343 N 
HETATM   34  C   UNK N   1      43.011  32.849  48.324  0.00  0.00     0.152 C 
HETATM   35  C   UNK N   1      43.258  32.942  45.786  0.00  0.00     0.152 C 
HETATM   36  C   UNK N   1      44.278  31.992  48.259  0.00  0.00     0.187 C 
HETATM   37  O   UNK N   1      44.268  31.183  47.102  0.00  0.00    -0.388 OA
HETATM   38  C   UNK N   1      44.479  32.049  46.007  0.00  0.00     0.187 C 
ENDBRANCH  12  31
BRANCH   1  39
HETATM   39  O   UNK N   1      40.721  40.048  51.831  0.00  0.00    -0.354 OA
HETATM   40  C   UNK N   1      41.440  40.639  52.849  0.00  0.00     0.210 C 
ENDBRANCH   1  39
TORSDOF 6
ENDMDL
MODEL 5
REMARK VINA RESULT:      -7.3      3.221      6.796
REMARK  6 active torsions:
REMARK  status: ('A' for Active; 'I' for Inactive)
REMARK    1  A    between atoms: O_2  and  C_3 
REMARK    2  A    between atoms: C_14  and  C_15 
REMARK       I    between atoms: C_15  and  N_17 
REMARK    3  A    between atoms: N_25  and  C_26 
REMARK    4  A    between atoms: N_30  and  C_31 
REMARK    5  A    between atoms: C_31  and  C_32 
REMARK    6  A    between atoms: C_32  and  N_33 
ROOT
HETATM    1  C   UNK N   1      35.278  35.109  51.414  0.00  0.00     0.090 A 
HETATM    2  C   UNK N   1      35.809  34.059  50.641  0.00  0.00     0.038 A 
HETATM    3  C   UNK N   1      37.177  33.999  50.386  0.00  0.00     0.004 A 
HETATM    4  C   UNK N   1      38.031  34.993  50.863  0.00  0.00     0.015 A 
HETATM    5  C   UNK N   1      37.529  36.075  51.616  0.00  0.00     0.017 A 
HETATM    6  C   UNK N   1      36.147  36.092  51.916  0.00  0.00     0.105 A 
HETATM    7  S   UNK N   1      35.553  37.392  52.975  0.00  0.00     0.183 S 
HETATM    8  O   UNK N   1      34.999  38.556  52.139  0.00  0.00    -0.222 OA
HETATM    9  O   UNK N   1      34.334  36.947  53.798  0.00  0.00    -0.222 OA
HETATM   10  C   UNK N   1      36.864  37.962  54.062  0.00  0.00     0.189 C 
HETATM   11  C   UNK N   1      38.119  38.003  53.228  0.00  0.00     0.019 A 
HETATM   12  C   UNK N   1      39.171  38.908  53.317  0.00  0.00     0.126 A 
HETATM   13  N   UNK N   1      40.039  38.654  52.318  0.00  0.00    -0.292 N 
ATOM     14  HN  UNK N   1      40.905  39.162  52.146  1.00  0.00     0.187 HD
HETATM   15  N   UNK N   1      39.586  37.639  51.592  0.00  0.00    -0.284 N 
HETATM   16  C   UNK N   1      38.417  37.187  52.131  0.00  0.00     0.072 A 
ENDROOT
BRANCH  15  17
HETATM   17  C   UNK N   1      40.222  37.275  50.312  0.00  0.00     0.137 C 
HETATM   18  C   UNK N   1      40.297  38.511  49.366  0.00  0.00     0.031 C 
HETATM   19  C   UNK N   1      41.681  39.154  49.442  0.00  0.00     0.032 C 
HETATM   20  C   UNK N   1      42.733  38.131  48.929  0.00  0.00     0.272 C 
HETATM   21  N   UNK N   1      42.474  36.728  49.377  0.00  0.00     0.092 N 
HETATM   22  C   UNK N   1      41.626  36.678  50.580  0.00  0.00     0.299 C 
BRANCH  21  23
HETATM   23  C   UNK N   1      41.983  35.847  48.290  0.00  0.00     0.302 C 
BRANCH  23  24
HETATM   24  C   UNK N   1      42.002  34.390  48.761  0.00  0.00     0.302 C 
BRANCH  24  25
HETATM   25  N   UNK N   1      43.012  33.609  48.015  0.00  0.00     0.094 N 
HETATM   26  C   UNK N   1      43.539  32.482  48.813  0.00  0.00     0.298 C 
HETATM   27  C   UNK N   1      44.565  31.704  47.983  0.00  0.00     0.198 C 
HETATM   28  O   UNK N   1      43.975  31.212  46.795  0.00  0.00    -0.388 OA
HETATM   29  C   UNK N   1      43.526  32.299  46.007  0.00  0.00     0.198 C 
HETATM   30  C   UNK N   1      42.449  33.096  46.754  0.00  0.00     0.298 C 
ENDBRANCH  24  25
ENDBRANCH  23  24
ENDBRANCH  21  23
ENDBRANCH  15  17
BRANCH  12  31
HETATM   31  C   UNK N   1      39.289  40.039  54.301  0.00  0.00     0.272 C 
HETATM   32  O   UNK N   1      39.154  41.177  53.873  0.00  0.00    -0.266 OA
HETATM   33  N   UNK N   1      39.581  39.868  55.640  0.00  0.00    -0.343 N 
HETATM   34  C   UNK N   1      39.803  38.533  56.208  0.00  0.00     0.152 C 
HETATM   35  C   UNK N   1      39.871  41.075  56.429  0.00  0.00     0.152 C 
HETATM   36  C   UNK N   1      40.078  38.552  57.714  0.00  0.00     0.187 C 
HETATM   37  O   UNK N   1      40.932  39.625  58.046  0.00  0.00    -0.388 OA
HETATM   38  C   UNK N   1      40.169  40.804  57.904  0.00  0.00     0.187 C 
ENDBRANCH  12  31
BRANCH   1  39
HETATM   39  O   UNK N   1      33.948  35.202  51.684  0.00  0.00    -0.354 OA
HETATM   40  C   UNK N   1      33.105  34.137  51.923  0.00  0.00     0.210 C 
ENDBRANCH   1  39
TORSDOF 6
ENDMDL
MODEL 6
REMARK VINA RESULT:      -7.1      1.168      1.341
REMARK  6 active torsions:
REMARK  status: ('A' for Active; 'I' for Inactive)
REMARK    1  A    between atoms: O_2  and  C_3 
REMARK    2  A    between atoms: C_14  and  C_15 
REMARK       I    between atoms: C_15  and  N_17 
REMARK    3  A    between atoms: N_25  and  C_26 
REMARK    4  A    between atoms: N_30  and  C_31 
REMARK    5  A    between atoms: C_31  and  C_32 
REMARK    6  A    between atoms: C_32  and  N_33 
ROOT
HETATM    1  C   UNK N   1      40.720  40.040  55.540  0.00  0.00     0.090 A 
HETATM    2  C   UNK N   1      41.891  40.778  55.281  0.00  0.00     0.038 A 
HETATM    3  C   UNK N   1      42.442  40.792  54.002  0.00  0.00     0.004 A 
HETATM    4  C   UNK N   1      41.862  40.051  52.972  0.00  0.00     0.015 A 
HETATM    5  C   UNK N   1      40.706  39.278  53.203  0.00  0.00     0.017 A 
HETATM    6  C   UNK N   1      40.124  39.318  54.491  0.00  0.00     0.105 A 
HETATM    7  S   UNK N   1      38.595  38.443  54.729  0.00  0.00     0.183 S 
HETATM    8  O   UNK N   1      38.860  37.045  55.309  0.00  0.00    -0.222 OA
HETATM    9  O   UNK N   1      37.720  39.102  55.807  0.00  0.00    -0.222 OA
HETATM   10  C   UNK N   1      37.693  38.324  53.181  0.00  0.00     0.189 C 
HETATM   11  C   UNK N   1      38.719  38.041  52.113  0.00  0.00     0.019 A 
HETATM   12  C   UNK N   1      38.568  37.258  50.974  0.00  0.00     0.126 A 
HETATM   13  N   UNK N   1      39.759  37.182  50.348  0.00  0.00    -0.292 N 
ATOM     14  HN  UNK N   1      39.938  36.675  49.482  1.00  0.00     0.187 HD
HETATM   15  N   UNK N   1      40.661  37.871  51.036  0.00  0.00    -0.284 N 
HETATM   16  C   UNK N   1      40.060  38.440  52.120  0.00  0.00     0.072 A 
ENDROOT
BRANCH  15  17
HETATM   17  C   UNK N   1      42.095  37.794  50.701  0.00  0.00     0.137 C 
HETATM   18  C   UNK N   1      42.688  36.420  51.136  0.00  0.00     0.031 C 
HETATM   19  C   UNK N   1      42.741  35.465  49.944  0.00  0.00     0.032 C 
HETATM   20  C   UNK N   1      43.707  36.054  48.878  0.00  0.00     0.272 C 
HETATM   21  N   UNK N   1      43.589  37.534  48.715  0.00  0.00     0.092 N 
HETATM   22  C   UNK N   1      42.289  38.043  49.184  0.00  0.00     0.299 C 
BRANCH  21  23
HETATM   23  C   UNK N   1      44.737  38.281  49.283  0.00  0.00     0.302 C 
BRANCH  23  24
HETATM   24  C   UNK N   1      45.924  37.333  49.474  0.00  0.00     0.302 C 
BRANCH  24  25
HETATM   25  N   UNK N   1      46.629  37.621  50.742  0.00  0.00     0.094 N 
HETATM   26  C   UNK N   1      47.795  38.506  50.537  0.00  0.00     0.298 C 
HETATM   27  C   UNK N   1      48.471  38.781  51.885  0.00  0.00     0.198 C 
HETATM   28  O   UNK N   1      47.562  39.389  52.782  0.00  0.00    -0.388 OA
HETATM   29  C   UNK N   1      46.477  38.511  53.021  0.00  0.00     0.198 C 
HETATM   30  C   UNK N   1      45.714  38.233  51.721  0.00  0.00     0.298 C 
ENDBRANCH  24  25
ENDBRANCH  23  24
ENDBRANCH  21  23
ENDBRANCH  15  17
BRANCH  12  31
HETATM   31  C   UNK N   1      37.318  36.538  50.551  0.00  0.00     0.272 C 
HETATM   32  O   UNK N   1      36.656  37.038  49.652  0.00  0.00    -0.266 OA
HETATM   33  N   UNK N   1      36.857  35.380  51.144  0.00  0.00    -0.343 N 
HETATM   34  C   UNK N   1      37.578  34.755  52.259  0.00  0.00     0.152 C 
HETATM   35  C   UNK N   1      35.516  34.911  50.764  0.00  0.00     0.152 C 
HETATM   36  C   UNK N   1      36.928  33.460  52.755  0.00  0.00     0.187 C 
HETATM   37  O   UNK N   1      35.523  33.597  52.794  0.00  0.00    -0.388 OA
HETATM   38  C   UNK N   1      35.085  33.615  51.452  0.00  0.00     0.187 C 
ENDBRANCH  12  31
BRANCH   1  39
HETATM   39  O   UNK N   1      40.152  40.001  56.775  0.00  0.00    -0.354 OA
HETATM   40  C   UNK N   1      40.666  39.339  57.870  0.00  0.00     0.210 C 
ENDBRANCH   1  39
TORSDOF 6
ENDMDL
MODEL 7
REMARK VINA RESULT:      -7.0      3.551      6.799
REMARK  6 active torsions:
REMARK  status: ('A' for Active; 'I' for Inactive)
REMARK    1  A    between atoms: O_2  and  C_3 
REMARK    2  A    between atoms: C_14  and  C_15 
REMARK       I    between atoms: C_15  and  N_17 
REMARK    3  A    between atoms: N_25  and  C_26 
REMARK    4  A    between atoms: N_30  and  C_31 
REMARK    5  A    between atoms: C_31  and  C_32 
REMARK    6  A    between atoms: C_32  and  N_33 
ROOT
HETATM    1  C   UNK N   1      42.966  39.711  54.567  0.00  0.00     0.090 A 
HETATM    2  C   UNK N   1      43.184  39.384  53.216  0.00  0.00     0.038 A 
HETATM    3  C   UNK N   1      42.120  39.375  52.317  0.00  0.00     0.004 A 
HETATM    4  C   UNK N   1      40.824  39.657  52.748  0.00  0.00     0.015 A 
HETATM    5  C   UNK N   1      40.566  39.961  54.101  0.00  0.00     0.017 A 
HETATM    6  C   UNK N   1      41.663  40.023  54.991  0.00  0.00     0.105 A 
HETATM    7  S   UNK N   1      41.335  40.535  56.663  0.00  0.00     0.183 S 
HETATM    8  O   UNK N   1      41.153  39.312  57.574  0.00  0.00    -0.222 OA
HETATM    9  O   UNK N   1      42.542  41.253  57.287  0.00  0.00    -0.222 OA
HETATM   10  C   UNK N   1      39.884  41.590  56.722  0.00  0.00     0.189 C 
HETATM   11  C   UNK N   1      38.883  40.989  55.768  0.00  0.00     0.019 A 
HETATM   12  C   UNK N   1      37.498  40.963  55.891  0.00  0.00     0.126 A 
HETATM   13  N   UNK N   1      36.992  40.235  54.876  0.00  0.00    -0.292 N 
ATOM     14  HN  UNK N   1      36.002  40.055  54.716  1.00  0.00     0.187 HD
HETATM   15  N   UNK N   1      37.987  39.788  54.120  0.00  0.00    -0.284 N 
HETATM   16  C   UNK N   1      39.171  40.248  54.616  0.00  0.00     0.072 A 
ENDROOT
BRANCH  15  17
HETATM   17  C   UNK N   1      37.747  38.792  53.058  0.00  0.00     0.137 C 
HETATM   18  C   UNK N   1      37.974  37.348  53.598  0.00  0.00     0.031 C 
HETATM   19  C   UNK N   1      36.639  36.710  53.980  0.00  0.00     0.032 C 
HETATM   20  C   UNK N   1      35.767  36.580  52.700  0.00  0.00     0.272 C 
HETATM   21  N   UNK N   1      35.859  37.760  51.788  0.00  0.00     0.092 N 
HETATM   22  C   UNK N   1      36.317  38.970  52.491  0.00  0.00     0.299 C 
BRANCH  21  23
HETATM   23  C   UNK N   1      36.632  37.487  50.552  0.00  0.00     0.302 C 
BRANCH  23  24
HETATM   24  C   UNK N   1      36.984  35.998  50.484  0.00  0.00     0.302 C 
BRANCH  24  25
HETATM   25  N   UNK N   1      38.421  35.810  50.188  0.00  0.00     0.094 N 
HETATM   26  C   UNK N   1      38.642  34.780  49.151  0.00  0.00     0.298 C 
HETATM   27  C   UNK N   1      40.144  34.644  48.878  0.00  0.00     0.198 C 
HETATM   28  O   UNK N   1      40.684  35.878  48.445  0.00  0.00    -0.388 OA
HETATM   29  C   UNK N   1      40.523  36.846  49.466  0.00  0.00     0.198 C 
HETATM   30  C   UNK N   1      39.036  37.079  49.757  0.00  0.00     0.298 C 
ENDBRANCH  24  25
ENDBRANCH  23  24
ENDBRANCH  21  23
ENDBRANCH  15  17
BRANCH  12  31
HETATM   31  C   UNK N   1      36.695  41.566  57.010  0.00  0.00     0.272 C 
HETATM   32  O   UNK N   1      36.249  40.807  57.858  0.00  0.00    -0.266 OA
HETATM   33  N   UNK N   1      36.399  42.912  57.108  0.00  0.00    -0.343 N 
HETATM   34  C   UNK N   1      36.863  43.870  56.098  0.00  0.00     0.152 C 
HETATM   35  C   UNK N   1      35.432  43.319  58.138  0.00  0.00     0.152 C 
HETATM   36  C   UNK N   1      36.463  45.316  56.404  0.00  0.00     0.187 C 
HETATM   37  O   UNK N   1      35.140  45.370  56.892  0.00  0.00    -0.388 OA
HETATM   38  C   UNK N   1      35.170  44.825  58.194  0.00  0.00     0.187 C 
ENDBRANCH  12  31
BRANCH   1  39
HETATM   39  O   UNK N   1      43.978  39.731  55.476  0.00  0.00    -0.354 OA
HETATM   40  C   UNK N   1      45.275  40.120  55.218  0.00  0.00     0.210 C 
ENDBRANCH   1  39
TORSDOF 6
ENDMDL
MODEL 8
REMARK VINA RESULT:      -6.9      3.180      7.702
REMARK  6 active torsions:
REMARK  status: ('A' for Active; 'I' for Inactive)
REMARK    1  A    between atoms: O_2  and  C_3 
REMARK    2  A    between atoms: C_14  and  C_15 
REMARK       I    between atoms: C_15  and  N_17 
REMARK    3  A    between atoms: N_25  and  C_26 
REMARK    4  A    between atoms: N_30  and  C_31 
REMARK    5  A    between atoms: C_31  and  C_32 
REMARK    6  A    between atoms: C_32  and  N_33 
ROOT
HETATM    1  C   UNK N   1      44.549  38.572  50.032  0.00  0.00     0.090 A 
HETATM    2  C   UNK N   1      44.033  38.768  48.738  0.00  0.00     0.038 A 
HETATM    3  C   UNK N   1      42.700  39.136  48.564  0.00  0.00     0.004 A 
HETATM    4  C   UNK N   1      41.855  39.282  49.663  0.00  0.00     0.015 A 
HETATM    5  C   UNK N   1      42.332  39.065  50.972  0.00  0.00     0.017 A 
HETATM    6  C   UNK N   1      43.701  38.748  51.139  0.00  0.00     0.105 A 
HETATM    7  S   UNK N   1      44.314  38.607  52.802  0.00  0.00     0.183 S 
HETATM    8  O   UNK N   1      44.311  37.138  53.253  0.00  0.00    -0.222 OA
HETATM    9  O   UNK N   1      45.798  38.994  52.899  0.00  0.00    -0.222 OA
HETATM   10  C   UNK N   1      43.334  39.614  53.919  0.00  0.00     0.189 C 
HETATM   11  C   UNK N   1      41.898  39.451  53.488  0.00  0.00     0.019 A 
HETATM   12  C   UNK N   1      40.764  39.432  54.293  0.00  0.00     0.126 A 
HETATM   13  N   UNK N   1      39.696  39.157  53.519  0.00  0.00    -0.292 N 
ATOM     14  HN  UNK N   1      38.734  39.086  53.847  1.00  0.00     0.187 HD
HETATM   15  N   UNK N   1      40.095  38.990  52.264  0.00  0.00    -0.284 N 
HETATM   16  C   UNK N   1      41.443  39.188  52.191  0.00  0.00     0.072 A 
ENDROOT
BRANCH  15  17
HETATM   17  C   UNK N   1      39.173  38.476  51.234  0.00  0.00     0.137 C 
HETATM   18  C   UNK N   1      39.450  36.968  50.954  0.00  0.00     0.031 C 
HETATM   19  C   UNK N   1      38.469  36.095  51.735  0.00  0.00     0.032 C 
HETATM   20  C   UNK N   1      37.029  36.390  51.227  0.00  0.00     0.272 C 
HETATM   21  N   UNK N   1      36.774  37.838  50.955  0.00  0.00     0.092 N 
HETATM   22  C   UNK N   1      37.709  38.713  51.681  0.00  0.00     0.299 C 
BRANCH  21  23
HETATM   23  C   UNK N   1      36.694  38.157  49.509  0.00  0.00     0.302 C 
BRANCH  23  24
HETATM   24  C   UNK N   1      36.300  39.625  49.326  0.00  0.00     0.302 C 
BRANCH  24  25
HETATM   25  N   UNK N   1      35.898  39.892  47.928  0.00  0.00     0.094 N 
HETATM   26  C   UNK N   1      35.579  38.648  47.197  0.00  0.00     0.298 C 
HETATM   27  C   UNK N   1      35.155  38.991  45.765  0.00  0.00     0.198 C 
HETATM   28  O   UNK N   1      34.026  39.842  45.772  0.00  0.00    -0.388 OA
HETATM   29  C   UNK N   1      34.356  41.057  46.420  0.00  0.00     0.198 C 
HETATM   30  C   UNK N   1      34.738  40.799  47.882  0.00  0.00     0.298 C 
ENDBRANCH  24  25
ENDBRANCH  23  24
ENDBRANCH  21  23
ENDBRANCH  15  17
BRANCH  12  31
HETATM   31  C   UNK N   1      40.733  39.599  55.787  0.00  0.00     0.272 C 
HETATM   32  O   UNK N   1      41.270  40.593  56.255  0.00  0.00    -0.266 OA
HETATM   33  N   UNK N   1      40.176  38.680  56.654  0.00  0.00    -0.343 N 
HETATM   34  C   UNK N   1      39.558  37.443  56.161  0.00  0.00     0.152 C 
HETATM   35  C   UNK N   1      40.408  38.878  58.093  0.00  0.00     0.152 C 
HETATM   36  C   UNK N   1      38.966  36.574  57.273  0.00  0.00     0.187 C 
HETATM   37  O   UNK N   1      39.826  36.551  58.392  0.00  0.00    -0.388 OA
HETATM   38  C   UNK N   1      39.745  37.829  58.986  0.00  0.00     0.187 C 
ENDBRANCH  12  31
BRANCH   1  39
HETATM   39  O   UNK N   1      45.844  38.213  50.244  0.00  0.00    -0.354 OA
HETATM   40  C   UNK N   1      46.481  37.141  49.656  0.00  0.00     0.210 C 
ENDBRANCH   1  39
TORSDOF 6
ENDMDL
MODEL 9
REMARK VINA RESULT:      -6.7      7.615     11.226
REMARK  6 active torsions:
REMARK  status: ('A' for Active; 'I' for Inactive)
REMARK    1  A    between atoms: O_2  and  C_3 
REMARK    2  A    between atoms: C_14  and  C_15 
REMARK       I    between atoms: C_15  and  N_17 
REMARK    3  A    between atoms: N_25  and  C_26 
REMARK    4  A    between atoms: N_30  and  C_31 
REMARK    5  A    between atoms: C_31  and  C_32 
REMARK    6  A    between atoms: C_32  and  N_33 
ROOT
HETATM    1  C   UNK N   1      36.108  32.410  45.995  0.00  0.00     0.090 A 
HETATM    2  C   UNK N   1      36.165  32.845  47.332  0.00  0.00     0.038 A 
HETATM    3  C   UNK N   1      37.277  33.547  47.793  0.00  0.00     0.004 A 
HETATM    4  C   UNK N   1      38.358  33.797  46.949  0.00  0.00     0.015 A 
HETATM    5  C   UNK N   1      38.347  33.350  45.612  0.00  0.00     0.017 A 
HETATM    6  C   UNK N   1      37.189  32.689  45.140  0.00  0.00     0.105 A 
HETATM    7  S   UNK N   1      37.138  32.248  43.418  0.00  0.00     0.183 S 
HETATM    8  O   UNK N   1      37.586  30.791  43.223  0.00  0.00    -0.222 OA
HETATM    9  O   UNK N   1      35.703  32.244  42.870  0.00  0.00    -0.222 OA
HETATM   10  C   UNK N   1      38.169  33.360  42.456  0.00  0.00     0.189 C 
HETATM   11  C   UNK N   1      39.413  33.599  43.273  0.00  0.00     0.019 A 
HETATM   12  C   UNK N   1      40.712  33.789  42.812  0.00  0.00     0.126 A 
HETATM   13  N   UNK N   1      41.536  33.859  43.876  0.00  0.00    -0.292 N 
ATOM     14  HN  UNK N   1      42.545  34.000  43.831  1.00  0.00     0.187 HD
HETATM   15  N   UNK N   1      40.828  33.715  44.990  0.00  0.00    -0.284 N 
HETATM   16  C   UNK N   1      39.510  33.578  44.669  0.00  0.00     0.072 A 
ENDROOT
BRANCH  15  17
HETATM   17  C   UNK N   1      41.492  33.542  46.296  0.00  0.00     0.137 C 
HETATM   18  C   UNK N   1      42.555  32.404  46.225  0.00  0.00     0.031 C 
HETATM   19  C   UNK N   1      43.949  32.995  46.015  0.00  0.00     0.032 C 
HETATM   20  C   UNK N   1      44.308  33.869  47.249  0.00  0.00     0.272 C 
HETATM   21  N   UNK N   1      43.163  34.680  47.763  0.00  0.00     0.092 N 
HETATM   22  C   UNK N   1      42.123  34.885  46.741  0.00  0.00     0.299 C 
BRANCH  21  23
HETATM   23  C   UNK N   1      42.615  34.175  49.046  0.00  0.00     0.302 C 
BRANCH  23  24
HETATM   24  C   UNK N   1      42.730  35.261  50.119  0.00  0.00     0.302 C 
BRANCH  24  25
HETATM   25  N   UNK N   1      41.451  35.988  50.269  0.00  0.00     0.094 N 
HETATM   26  C   UNK N   1      41.455  37.272  49.537  0.00  0.00     0.298 C 
HETATM   27  C   UNK N   1      40.102  37.968  49.717  0.00  0.00     0.198 C 
HETATM   28  O   UNK N   1      39.054  37.149  49.236  0.00  0.00    -0.388 OA
HETATM   29  C   UNK N   1      39.016  35.946  49.981  0.00  0.00     0.198 C 
HETATM   30  C   UNK N   1      40.323  35.162  49.804  0.00  0.00     0.298 C 
ENDBRANCH  24  25
ENDBRANCH  23  24
ENDBRANCH  21  23
ENDBRANCH  15  17
BRANCH  12  31
HETATM   31  C   UNK N   1      41.147  33.821  41.374  0.00  0.00     0.272 C 
HETATM   32  O   UNK N   1      41.244  34.916  40.837  0.00  0.00    -0.266 OA
HETATM   33  N   UNK N   1      41.397  32.692  40.619  0.00  0.00    -0.343 N 
HETATM   34  C   UNK N   1      41.252  31.347  41.187  0.00  0.00     0.152 C 
HETATM   35  C   UNK N   1      41.608  32.876  39.175  0.00  0.00     0.152 C 
HETATM   36  C   UNK N   1      41.610  30.229  40.203  0.00  0.00     0.187 C 
HETATM   37  O   UNK N   1      41.107  30.524  38.917  0.00  0.00    -0.388 OA
HETATM   38  C   UNK N   1      41.895  31.582  38.412  0.00  0.00     0.187 C 
ENDBRANCH  12  31
BRANCH   1  39
HETATM   39  O   UNK N   1      35.041  31.722  45.507  0.00  0.00    -0.354 OA
HETATM   40  C   UNK N   1      34.586  30.510  45.982  0.00  0.00     0.210 C 
ENDBRANCH   1  39
TORSDOF 6
ENDMDL
