MODEL 1
REMARK VINA RESULT:      -8.9      0.000      0.000
REMARK  5 active torsions:
REMARK  status: ('A' for Active; 'I' for Inactive)
REMARK    1  A    between atoms: C_2  and  C_3 
REMARK       I    between atoms: C_2  and  N_33 
REMARK    2  A    between atoms: N_6  and  C_7 
REMARK    3  A    between atoms: N_11  and  C_12 
REMARK    4  A    between atoms: C_12  and  C_13 
REMARK    5  A    between atoms: C_13  and  N_14 
ROOT
HETATM    1  C   UNK N   1      40.538  37.858  49.883  0.00  0.00     0.126 A 
HETATM    2  N   UNK N   1      40.847  36.817  49.094  0.00  0.00    -0.292 N 
ATOM      3  HN  UNK N   1      40.187  36.308  48.506  1.00  0.00     0.187 HD
HETATM    4  N   UNK N   1      42.142  36.551  49.196  0.00  0.00    -0.284 N 
HETATM    5  C   UNK N   1      42.718  37.453  50.045  0.00  0.00     0.072 A 
HETATM    6  C   UNK N   1      41.687  38.274  50.536  0.00  0.00     0.019 A 
HETATM    7  C   UNK N   1      41.760  39.345  51.591  0.00  0.00     0.189 C 
HETATM    8  S   UNK N   1      43.279  39.096  52.516  0.00  0.00     0.180 S 
HETATM    9  O   UNK N   1      43.765  40.407  53.153  0.00  0.00    -0.222 OA
HETATM   10  O   UNK N   1      42.995  38.226  53.749  0.00  0.00    -0.222 OA
HETATM   11  C   UNK N   1      44.554  38.335  51.558  0.00  0.00     0.072 A 
HETATM   12  C   UNK N   1      45.896  38.498  51.919  0.00  0.00     0.024 A 
HETATM   13  C   UNK N   1      46.901  37.953  51.126  0.00  0.00     0.002 A 
HETATM   14  C   UNK N   1      46.569  37.264  49.963  0.00  0.00     0.001 A 
HETATM   15  C   UNK N   1      45.229  37.089  49.600  0.00  0.00     0.015 A 
HETATM   16  C   UNK N   1      44.187  37.596  50.410  0.00  0.00     0.014 A 
ENDROOT
BRANCH   4  17
HETATM   17  C   UNK N   1      42.696  35.358  48.532  0.00  0.00     0.137 C 
HETATM   18  C   UNK N   1      42.580  34.140  49.457  0.00  0.00     0.031 C 
HETATM   19  C   UNK N   1      43.254  32.909  48.808  0.00  0.00     0.032 C 
HETATM   20  C   UNK N   1      43.142  32.936  47.270  0.00  0.00     0.272 C 
HETATM   21  N   UNK N   1      41.889  33.599  46.889  0.00  0.00     0.092 N 
HETATM   22  C   UNK N   1      41.911  35.050  47.220  0.00  0.00     0.299 C 
BRANCH  21  23
HETATM   23  C   UNK N   1      41.474  33.333  45.502  0.00  0.00     0.302 C 
BRANCH  23  24
HETATM   24  C   UNK N   1      42.601  33.762  44.549  0.00  0.00     0.302 C 
BRANCH  24  25
HETATM   25  N   UNK N   1      42.669  32.914  43.347  0.00  0.00     0.093 N 
HETATM   26  C   UNK N   1      42.032  31.613  43.565  0.00  0.00     0.275 C 
HETATM   27  C   UNK N   1      42.006  31.029  42.175  0.00  0.00     0.069 C 
HETATM   28  C   UNK N   1      41.572  32.218  41.324  0.00  0.00     0.200 C 
HETATM   29  F   UNK N   1      42.249  32.208  40.117  0.00  0.00    -0.248 F 
HETATM   30  C   UNK N   1      41.928  33.437  42.187  0.00  0.00     0.309 C 
ENDBRANCH  24  25
ENDBRANCH  23  24
ENDBRANCH  21  23
ENDBRANCH   4  17
BRANCH   1  31
HETATM   31  C   UNK N   1      39.164  38.443  50.019  0.00  0.00     0.272 C 
HETATM   32  O   UNK N   1      38.916  39.459  49.381  0.00  0.00    -0.266 OA
HETATM   33  N   UNK N   1      38.181  37.899  50.821  0.00  0.00    -0.343 N 
HETATM   34  C   UNK N   1      38.434  36.694  51.620  0.00  0.00     0.152 C 
HETATM   35  C   UNK N   1      36.831  38.476  50.751  0.00  0.00     0.152 C 
HETATM   36  C   UNK N   1      37.298  36.358  52.587  0.00  0.00     0.187 C 
HETATM   37  O   UNK N   1      36.048  36.523  51.953  0.00  0.00    -0.388 OA
HETATM   38  C   UNK N   1      35.859  37.913  51.793  0.00  0.00     0.187 C 
ENDBRANCH   1  31
TORSDOF 5
ENDMDL
MODEL 2
REMARK VINA RESULT:      -8.8      4.379      8.275
REMARK  5 active torsions:
REMARK  status: ('A' for Active; 'I' for Inactive)
REMARK    1  A    between atoms: C_2  and  C_3 
REMARK       I    between atoms: C_2  and  N_33 
REMARK    2  A    between atoms: N_6  and  C_7 
REMARK    3  A    between atoms: N_11  and  C_12 
REMARK    4  A    between atoms: C_12  and  C_13 
REMARK    5  A    between atoms: C_13  and  N_14 
ROOT
HETATM    1  C   UNK N   1      40.643  35.455  49.295  0.00  0.00     0.126 A 
HETATM    2  N   UNK N   1      41.665  36.020  49.956  0.00  0.00    -0.292 N 
ATOM      3  HN  UNK N   1      41.577  36.594  50.795  1.00  0.00     0.187 HD
HETATM    4  N   UNK N   1      42.807  35.718  49.355  0.00  0.00    -0.284 N 
HETATM    5  C   UNK N   1      42.547  34.906  48.287  0.00  0.00     0.072 A 
HETATM    6  C   UNK N   1      41.150  34.766  48.204  0.00  0.00     0.019 A 
HETATM    7  C   UNK N   1      40.335  34.078  47.142  0.00  0.00     0.189 C 
HETATM    8  S   UNK N   1      41.383  33.876  45.698  0.00  0.00     0.180 S 
HETATM    9  O   UNK N   1      40.916  32.695  44.832  0.00  0.00    -0.222 OA
HETATM   10  O   UNK N   1      41.188  35.067  44.748  0.00  0.00    -0.222 OA
HETATM   11  C   UNK N   1      43.098  33.739  46.102  0.00  0.00     0.072 A 
HETATM   12  C   UNK N   1      43.980  33.111  45.216  0.00  0.00     0.024 A 
HETATM   13  C   UNK N   1      45.316  32.946  45.566  0.00  0.00     0.002 A 
HETATM   14  C   UNK N   1      45.768  33.388  46.806  0.00  0.00     0.001 A 
HETATM   15  C   UNK N   1      44.894  34.024  47.694  0.00  0.00     0.015 A 
HETATM   16  C   UNK N   1      43.541  34.242  47.347  0.00  0.00     0.014 A 
ENDROOT
BRANCH   4  17
HETATM   17  C   UNK N   1      44.061  36.340  49.814  0.00  0.00     0.137 C 
HETATM   18  C   UNK N   1      44.421  37.526  48.909  0.00  0.00     0.031 C 
HETATM   19  C   UNK N   1      45.788  38.117  49.321  0.00  0.00     0.032 C 
HETATM   20  C   UNK N   1      46.042  37.980  50.836  0.00  0.00     0.272 C 
HETATM   21  N   UNK N   1      44.760  38.056  51.549  0.00  0.00     0.092 N 
HETATM   22  C   UNK N   1      43.905  36.870  51.272  0.00  0.00     0.299 C 
BRANCH  21  23
HETATM   23  C   UNK N   1      44.896  38.342  52.987  0.00  0.00     0.302 C 
BRANCH  23  24
HETATM   24  C   UNK N   1      44.025  39.558  53.342  0.00  0.00     0.302 C 
BRANCH  24  25
HETATM   25  N   UNK N   1      43.293  39.369  54.607  0.00  0.00     0.093 N 
HETATM   26  C   UNK N   1      43.212  40.613  55.376  0.00  0.00     0.275 C 
HETATM   27  C   UNK N   1      42.243  40.251  56.473  0.00  0.00     0.069 C 
HETATM   28  C   UNK N   1      41.167  39.474  55.723  0.00  0.00     0.200 C 
HETATM   29  F   UNK N   1      40.720  38.417  56.497  0.00  0.00    -0.248 F 
HETATM   30  C   UNK N   1      41.876  39.005  54.444  0.00  0.00     0.309 C 
ENDBRANCH  24  25
ENDBRANCH  23  24
ENDBRANCH  21  23
ENDBRANCH   4  17
BRANCH   1  31
HETATM   31  C   UNK N   1      39.202  35.576  49.691  0.00  0.00     0.272 C 
HETATM   32  O   UNK N   1      38.605  34.545  49.974  0.00  0.00    -0.266 OA
HETATM   33  N   UNK N   1      38.527  36.778  49.748  0.00  0.00    -0.343 N 
HETATM   34  C   UNK N   1      39.192  38.040  49.399  0.00  0.00     0.152 C 
HETATM   35  C   UNK N   1      37.163  36.783  50.297  0.00  0.00     0.152 C 
HETATM   36  C   UNK N   1      38.236  39.232  49.332  0.00  0.00     0.187 C 
HETATM   37  O   UNK N   1      37.332  39.197  50.416  0.00  0.00    -0.388 OA
HETATM   38  C   UNK N   1      36.444  38.129  50.165  0.00  0.00     0.187 C 
ENDBRANCH   1  31
TORSDOF 5
ENDMDL
MODEL 3
REMARK VINA RESULT:      -8.3      4.139      5.789
REMARK  5 active torsions:
REMARK  status: ('A' for Active; 'I' for Inactive)
REMARK    1  A    between atoms: C_2  and  C_3 
REMARK       I    between atoms: C_2  and  N_33 
REMARK    2  A    between atoms: N_6  and  C_7 
REMARK    3  A    between atoms: N_11  and  C_12 
REMARK    4  A    between atoms: C_12  and  C_13 
REMARK    5  A    between atoms: C_13  and  N_14 
ROOT
HETATM    1  C   UNK N   1      41.797  39.295  52.609  0.00  0.00     0.126 A 
HETATM    2  N   UNK N   1      41.374  38.409  51.695  0.00  0.00    -0.292 N 
ATOM      3  HN  UNK N   1      40.397  38.200  51.487  1.00  0.00     0.187 HD
HETATM    4  N   UNK N   1      42.418  37.846  51.104  0.00  0.00    -0.284 N 
HETATM    5  C   UNK N   1      43.564  38.391  51.609  0.00  0.00     0.072 A 
HETATM    6  C   UNK N   1      43.183  39.293  52.618  0.00  0.00     0.019 A 
HETATM    7  C   UNK N   1      44.058  40.065  53.568  0.00  0.00     0.189 C 
HETATM    8  S   UNK N   1      45.678  39.289  53.571  0.00  0.00     0.180 S 
HETATM    9  O   UNK N   1      46.774  40.288  53.972  0.00  0.00    -0.222 OA
HETATM   10  O   UNK N   1      45.753  38.256  54.705  0.00  0.00    -0.222 OA
HETATM   11  C   UNK N   1      46.063  38.490  52.042  0.00  0.00     0.072 A 
HETATM   12  C   UNK N   1      47.396  38.268  51.682  0.00  0.00     0.024 A 
HETATM   13  C   UNK N   1      47.698  37.699  50.449  0.00  0.00     0.002 A 
HETATM   14  C   UNK N   1      46.673  37.371  49.566  0.00  0.00     0.001 A 
HETATM   15  C   UNK N   1      45.336  37.583  49.922  0.00  0.00     0.015 A 
HETATM   16  C   UNK N   1      44.999  38.120  51.186  0.00  0.00     0.014 A 
ENDROOT
BRANCH   4  17
HETATM   17  C   UNK N   1      42.210  36.734  50.160  0.00  0.00     0.137 C 
HETATM   18  C   UNK N   1      42.821  35.445  50.724  0.00  0.00     0.031 C 
HETATM   19  C   UNK N   1      42.698  34.299  49.693  0.00  0.00     0.032 C 
HETATM   20  C   UNK N   1      41.430  34.438  48.826  0.00  0.00     0.272 C 
HETATM   21  N   UNK N   1      40.370  35.071  49.620  0.00  0.00     0.092 N 
HETATM   22  C   UNK N   1      40.686  36.492  49.930  0.00  0.00     0.299 C 
BRANCH  21  23
HETATM   23  C   UNK N   1      39.020  34.893  49.058  0.00  0.00     0.302 C 
BRANCH  23  24
HETATM   24  C   UNK N   1      38.130  34.196  50.098  0.00  0.00     0.302 C 
BRANCH  24  25
HETATM   25  N   UNK N   1      37.276  35.148  50.830  0.00  0.00     0.093 N 
HETATM   26  C   UNK N   1      37.838  35.482  52.141  0.00  0.00     0.275 C 
HETATM   27  C   UNK N   1      36.953  36.618  52.589  0.00  0.00     0.069 C 
HETATM   28  C   UNK N   1      36.819  37.456  51.323  0.00  0.00     0.200 C 
HETATM   29  F   UNK N   1      35.534  37.961  51.223  0.00  0.00    -0.248 F 
HETATM   30  C   UNK N   1      37.150  36.470  50.193  0.00  0.00     0.309 C 
ENDBRANCH  24  25
ENDBRANCH  23  24
ENDBRANCH  21  23
ENDBRANCH   4  17
BRANCH   1  31
HETATM   31  C   UNK N   1      40.895  40.128  53.470  0.00  0.00     0.272 C 
HETATM   32  O   UNK N   1      40.479  41.180  53.002  0.00  0.00    -0.266 OA
HETATM   33  N   UNK N   1      40.518  39.768  54.748  0.00  0.00    -0.343 N 
HETATM   34  C   UNK N   1      41.004  38.527  55.362  0.00  0.00     0.152 C 
HETATM   35  C   UNK N   1      39.508  40.590  55.431  0.00  0.00     0.152 C 
HETATM   36  C   UNK N   1      40.639  38.398  56.842  0.00  0.00     0.187 C 
HETATM   37  O   UNK N   1      39.304  38.804  57.056  0.00  0.00    -0.388 OA
HETATM   38  C   UNK N   1      39.282  40.207  56.897  0.00  0.00     0.187 C 
ENDBRANCH   1  31
TORSDOF 5
ENDMDL
MODEL 4
REMARK VINA RESULT:      -8.2      3.482      6.584
REMARK  5 active torsions:
REMARK  status: ('A' for Active; 'I' for Inactive)
REMARK    1  A    between atoms: C_2  and  C_3 
REMARK       I    between atoms: C_2  and  N_33 
REMARK    2  A    between atoms: N_6  and  C_7 
REMARK    3  A    between atoms: N_11  and  C_12 
REMARK    4  A    between atoms: C_12  and  C_13 
REMARK    5  A    between atoms: C_13  and  N_14 
ROOT
HETATM    1  C   UNK N   1      37.878  36.228  52.824  0.00  0.00     0.126 A 
HETATM    2  N   UNK N   1      38.944  36.285  52.011  0.00  0.00    -0.292 N 
ATOM      3  HN  UNK N   1      39.791  35.726  52.112  1.00  0.00     0.187 HD
HETATM    4  N   UNK N   1      38.727  37.179  51.056  0.00  0.00    -0.284 N 
HETATM    5  C   UNK N   1      37.477  37.707  51.214  0.00  0.00     0.072 A 
HETATM    6  C   UNK N   1      36.934  37.140  52.381  0.00  0.00     0.019 A 
HETATM    7  C   UNK N   1      35.637  37.469  53.070  0.00  0.00     0.189 C 
HETATM    8  S   UNK N   1      35.088  39.067  52.464  0.00  0.00     0.180 S 
HETATM    9  O   UNK N   1      33.563  39.217  52.588  0.00  0.00    -0.222 OA
HETATM   10  O   UNK N   1      35.597  40.176  53.397  0.00  0.00    -0.222 OA
HETATM   11  C   UNK N   1      35.636  39.408  50.818  0.00  0.00     0.072 A 
HETATM   12  C   UNK N   1      34.942  40.326  50.023  0.00  0.00     0.024 A 
HETATM   13  C   UNK N   1      35.336  40.542  48.706  0.00  0.00     0.002 A 
HETATM   14  C   UNK N   1      36.407  39.828  48.176  0.00  0.00     0.001 A 
HETATM   15  C   UNK N   1      37.111  38.915  48.968  0.00  0.00     0.015 A 
HETATM   16  C   UNK N   1      36.759  38.707  50.322  0.00  0.00     0.014 A 
ENDROOT
BRANCH   4  17
HETATM   17  C   UNK N   1      39.811  37.524  50.121  0.00  0.00     0.137 C 
HETATM   18  C   UNK N   1      40.497  38.823  50.567  0.00  0.00     0.031 C 
HETATM   19  C   UNK N   1      41.566  39.246  49.534  0.00  0.00     0.032 C 
HETATM   20  C   UNK N   1      42.215  38.029  48.845  0.00  0.00     0.272 C 
HETATM   21  N   UNK N   1      42.250  36.903  49.788  0.00  0.00     0.092 N 
HETATM   22  C   UNK N   1      40.884  36.393  50.088  0.00  0.00     0.299 C 
BRANCH  21  23
HETATM   23  C   UNK N   1      43.190  35.836  49.404  0.00  0.00     0.302 C 
BRANCH  23  24
HETATM   24  C   UNK N   1      42.568  35.002  48.273  0.00  0.00     0.302 C 
BRANCH  24  25
HETATM   25  N   UNK N   1      43.503  33.992  47.746  0.00  0.00     0.093 N 
HETATM   26  C   UNK N   1      43.397  32.725  48.473  0.00  0.00     0.275 C 
HETATM   27  C   UNK N   1      44.240  31.800  47.631  0.00  0.00     0.069 C 
HETATM   28  C   UNK N   1      43.823  32.169  46.212  0.00  0.00     0.200 C 
HETATM   29  F   UNK N   1      44.922  32.135  45.372  0.00  0.00    -0.248 F 
HETATM   30  C   UNK N   1      43.240  33.583  46.356  0.00  0.00     0.309 C 
ENDBRANCH  24  25
ENDBRANCH  23  24
ENDBRANCH  21  23
ENDBRANCH   4  17
BRANCH   1  31
HETATM   31  C   UNK N   1      37.763  35.322  54.014  0.00  0.00     0.272 C 
HETATM   32  O   UNK N   1      37.409  34.168  53.814  0.00  0.00    -0.266 OA
HETATM   33  N   UNK N   1      38.033  35.725  55.306  0.00  0.00    -0.343 N 
HETATM   34  C   UNK N   1      38.441  37.104  55.602  0.00  0.00     0.152 C 
HETATM   35  C   UNK N   1      38.033  34.706  56.366  0.00  0.00     0.152 C 
HETATM   36  C   UNK N   1      38.504  37.411  57.099  0.00  0.00     0.187 C 
HETATM   37  O   UNK N   1      39.107  36.342  57.795  0.00  0.00    -0.388 OA
HETATM   38  C   UNK N   1      38.179  35.278  57.779  0.00  0.00     0.187 C 
ENDBRANCH   1  31
TORSDOF 5
ENDMDL
MODEL 5
REMARK VINA RESULT:      -8.1      3.502      6.597
REMARK  5 active torsions:
REMARK  status: ('A' for Active; 'I' for Inactive)
REMARK    1  A    between atoms: C_2  and  C_3 
REMARK       I    between atoms: C_2  and  N_33 
REMARK    2  A    between atoms: N_6  and  C_7 
REMARK    3  A    between atoms: N_11  and  C_12 
REMARK    4  A    between atoms: C_12  and  C_13 
REMARK    5  A    between atoms: C_13  and  N_14 
ROOT
HETATM    1  C   UNK N   1      37.909  36.171  52.835  0.00  0.00     0.126 A 
HETATM    2  N   UNK N   1      38.978  36.274  52.030  0.00  0.00    -0.292 N 
ATOM      3  HN  UNK N   1      39.836  35.729  52.120  1.00  0.00     0.187 HD
HETATM    4  N   UNK N   1      38.749  37.190  51.100  0.00  0.00    -0.284 N 
HETATM    5  C   UNK N   1      37.487  37.688  51.265  0.00  0.00     0.072 A 
HETATM    6  C   UNK N   1      36.949  37.077  52.411  0.00  0.00     0.019 A 
HETATM    7  C   UNK N   1      35.641  37.359  53.101  0.00  0.00     0.189 C 
HETATM    8  S   UNK N   1      35.063  38.962  52.537  0.00  0.00     0.180 S 
HETATM    9  O   UNK N   1      33.535  39.077  52.655  0.00  0.00    -0.222 OA
HETATM   10  O   UNK N   1      35.543  40.054  53.505  0.00  0.00    -0.222 OA
HETATM   11  C   UNK N   1      35.613  39.361  50.905  0.00  0.00     0.072 A 
HETATM   12  C   UNK N   1      34.905  40.287  50.132  0.00  0.00     0.024 A 
HETATM   13  C   UNK N   1      35.302  40.549  48.824  0.00  0.00     0.002 A 
HETATM   14  C   UNK N   1      36.392  39.873  48.282  0.00  0.00     0.001 A 
HETATM   15  C   UNK N   1      37.110  38.951  49.052  0.00  0.00     0.015 A 
HETATM   16  C   UNK N   1      36.754  38.697  50.396  0.00  0.00     0.014 A 
ENDROOT
BRANCH   4  17
HETATM   17  C   UNK N   1      39.831  37.584  50.181  0.00  0.00     0.137 C 
HETATM   18  C   UNK N   1      40.481  38.888  50.664  0.00  0.00     0.031 C 
HETATM   19  C   UNK N   1      41.546  39.362  49.650  0.00  0.00     0.032 C 
HETATM   20  C   UNK N   1      42.231  38.178  48.938  0.00  0.00     0.272 C 
HETATM   21  N   UNK N   1      42.287  37.031  49.854  0.00  0.00     0.092 N 
HETATM   22  C   UNK N   1      40.932  36.481  50.131  0.00  0.00     0.299 C 
BRANCH  21  23
HETATM   23  C   UNK N   1      43.256  35.997  49.452  0.00  0.00     0.302 C 
BRANCH  23  24
HETATM   24  C   UNK N   1      42.533  34.929  48.617  0.00  0.00     0.302 C 
BRANCH  24  25
HETATM   25  N   UNK N   1      43.469  33.958  48.022  0.00  0.00     0.093 N 
HETATM   26  C   UNK N   1      43.389  32.653  48.684  0.00  0.00     0.275 C 
HETATM   27  C   UNK N   1      44.226  31.783  47.780  0.00  0.00     0.069 C 
HETATM   28  C   UNK N   1      43.781  32.222  46.390  0.00  0.00     0.200 C 
HETATM   29  F   UNK N   1      44.866  32.243  45.531  0.00  0.00    -0.248 F 
HETATM   30  C   UNK N   1      43.186  33.619  46.618  0.00  0.00     0.309 C 
ENDBRANCH  24  25
ENDBRANCH  23  24
ENDBRANCH  21  23
ENDBRANCH   4  17
BRANCH   1  31
HETATM   31  C   UNK N   1      37.806  35.230  53.997  0.00  0.00     0.272 C 
HETATM   32  O   UNK N   1      38.105  35.662  55.103  0.00  0.00    -0.266 OA
HETATM   33  N   UNK N   1      37.396  33.917  53.880  0.00  0.00    -0.343 N 
HETATM   34  C   UNK N   1      37.044  33.346  52.574  0.00  0.00     0.152 C 
HETATM   35  C   UNK N   1      37.189  33.142  55.111  0.00  0.00     0.152 C 
HETATM   36  C   UNK N   1      36.806  31.835  52.617  0.00  0.00     0.187 C 
HETATM   37  O   UNK N   1      36.047  31.490  53.755  0.00  0.00    -0.388 OA
HETATM   38  C   UNK N   1      36.897  31.658  54.870  0.00  0.00     0.187 C 
ENDBRANCH   1  31
TORSDOF 5
ENDMDL
MODEL 6
REMARK VINA RESULT:      -8.0      5.897      9.303
REMARK  5 active torsions:
REMARK  status: ('A' for Active; 'I' for Inactive)
REMARK    1  A    between atoms: C_2  and  C_3 
REMARK       I    between atoms: C_2  and  N_33 
REMARK    2  A    between atoms: N_6  and  C_7 
REMARK    3  A    between atoms: N_11  and  C_12 
REMARK    4  A    between atoms: C_12  and  C_13 
REMARK    5  A    between atoms: C_13  and  N_14 
ROOT
HETATM    1  C   UNK N   1      39.892  38.375  51.652  0.00  0.00     0.126 A 
HETATM    2  N   UNK N   1      40.322  38.742  52.870  0.00  0.00    -0.292 N 
ATOM      3  HN  UNK N   1      39.720  38.941  53.669  1.00  0.00     0.187 HD
HETATM    4  N   UNK N   1      41.646  38.805  52.874  0.00  0.00    -0.284 N 
HETATM    5  C   UNK N   1      42.114  38.441  51.644  0.00  0.00     0.072 A 
HETATM    6  C   UNK N   1      40.994  38.207  50.827  0.00  0.00     0.019 A 
HETATM    7  C   UNK N   1      40.951  37.901  49.354  0.00  0.00     0.189 C 
HETATM    8  S   UNK N   1      42.537  38.368  48.654  0.00  0.00     0.180 S 
HETATM    9  O   UNK N   1      42.841  37.567  47.379  0.00  0.00    -0.222 OA
HETATM   10  O   UNK N   1      42.463  39.807  48.121  0.00  0.00    -0.222 OA
HETATM   11  C   UNK N   1      43.865  38.256  49.816  0.00  0.00     0.072 A 
HETATM   12  C   UNK N   1      45.180  38.103  49.366  0.00  0.00     0.024 A 
HETATM   13  C   UNK N   1      46.215  37.948  50.282  0.00  0.00     0.002 A 
HETATM   14  C   UNK N   1      45.936  37.925  51.646  0.00  0.00     0.001 A 
HETATM   15  C   UNK N   1      44.624  38.085  52.104  0.00  0.00     0.015 A 
HETATM   16  C   UNK N   1      43.559  38.287  51.196  0.00  0.00     0.014 A 
ENDROOT
BRANCH   4  17
HETATM   17  C   UNK N   1      42.347  39.324  54.061  0.00  0.00     0.137 C 
HETATM   18  C   UNK N   1      42.850  40.749  53.793  0.00  0.00     0.031 C 
HETATM   19  C   UNK N   1      43.676  41.260  54.995  0.00  0.00     0.032 C 
HETATM   20  C   UNK N   1      43.171  40.677  56.331  0.00  0.00     0.272 C 
HETATM   21  N   UNK N   1      41.721  40.460  56.244  0.00  0.00     0.092 N 
HETATM   22  C   UNK N   1      41.384  39.371  55.287  0.00  0.00     0.299 C 
BRANCH  21  23
HETATM   23  C   UNK N   1      41.065  40.297  57.552  0.00  0.00     0.302 C 
BRANCH  23  24
HETATM   24  C   UNK N   1      39.541  40.330  57.359  0.00  0.00     0.302 C 
BRANCH  24  25
HETATM   25  N   UNK N   1      39.079  41.608  56.789  0.00  0.00     0.093 N 
HETATM   26  C   UNK N   1      38.228  41.400  55.614  0.00  0.00     0.275 C 
HETATM   27  C   UNK N   1      37.692  42.786  55.357  0.00  0.00     0.069 C 
HETATM   28  C   UNK N   1      37.347  43.275  56.759  0.00  0.00     0.200 C 
HETATM   29  F   UNK N   1      37.656  44.619  56.880  0.00  0.00    -0.248 F 
HETATM   30  C   UNK N   1      38.205  42.392  57.678  0.00  0.00     0.309 C 
ENDBRANCH  24  25
ENDBRANCH  23  24
ENDBRANCH  21  23
ENDBRANCH   4  17
BRANCH   1  31
HETATM   31  C   UNK N   1      38.452  38.194  51.276  0.00  0.00     0.272 C 
HETATM   32  O   UNK N   1      37.943  39.048  50.561  0.00  0.00    -0.266 OA
HETATM   33  N   UNK N   1      37.685  37.126  51.694  0.00  0.00    -0.343 N 
HETATM   34  C   UNK N   1      38.242  36.087  52.568  0.00  0.00     0.152 C 
HETATM   35  C   UNK N   1      36.333  36.981  51.134  0.00  0.00     0.152 C 
HETATM   36  C   UNK N   1      37.193  35.098  53.080  0.00  0.00     0.187 C 
HETATM   37  O   UNK N   1      36.311  34.734  52.040  0.00  0.00    -0.388 OA
HETATM   38  C   UNK N   1      35.508  35.866  51.781  0.00  0.00     0.187 C 
ENDBRANCH   1  31
TORSDOF 5
ENDMDL
MODEL 7
REMARK VINA RESULT:      -8.0      4.509      8.275
REMARK  5 active torsions:
REMARK  status: ('A' for Active; 'I' for Inactive)
REMARK    1  A    between atoms: C_2  and  C_3 
REMARK       I    between atoms: C_2  and  N_33 
REMARK    2  A    between atoms: N_6  and  C_7 
REMARK    3  A    between atoms: N_11  and  C_12 
REMARK    4  A    between atoms: C_12  and  C_13 
REMARK    5  A    between atoms: C_13  and  N_14 
ROOT
HETATM    1  C   UNK N   1      41.377  39.125  51.855  0.00  0.00     0.126 A 
HETATM    2  N   UNK N   1      40.104  39.104  52.281  0.00  0.00    -0.292 N 
ATOM      3  HN  UNK N   1      39.293  38.896  51.699  1.00  0.00     0.187 HD
HETATM    4  N   UNK N   1      40.063  39.396  53.574  0.00  0.00    -0.284 N 
HETATM    5  C   UNK N   1      41.337  39.583  54.029  0.00  0.00     0.072 A 
HETATM    6  C   UNK N   1      42.195  39.461  52.922  0.00  0.00     0.019 A 
HETATM    7  C   UNK N   1      43.680  39.696  52.851  0.00  0.00     0.189 C 
HETATM    8  S   UNK N   1      44.148  40.656  54.295  0.00  0.00     0.180 S 
HETATM    9  O   UNK N   1      45.623  40.429  54.660  0.00  0.00    -0.222 OA
HETATM   10  O   UNK N   1      44.128  42.153  53.949  0.00  0.00    -0.222 OA
HETATM   11  C   UNK N   1      43.091  40.375  55.684  0.00  0.00     0.072 A 
HETATM   12  C   UNK N   1      43.553  40.628  56.980  0.00  0.00     0.024 A 
HETATM   13  C   UNK N   1      42.743  40.343  58.075  0.00  0.00     0.002 A 
HETATM   14  C   UNK N   1      41.482  39.787  57.878  0.00  0.00     0.001 A 
HETATM   15  C   UNK N   1      41.010  39.538  56.585  0.00  0.00     0.015 A 
HETATM   16  C   UNK N   1      41.796  39.857  55.453  0.00  0.00     0.014 A 
ENDROOT
BRANCH   4  17
HETATM   17  C   UNK N   1      38.762  39.574  54.240  0.00  0.00     0.137 C 
HETATM   18  C   UNK N   1      38.528  41.059  54.549  0.00  0.00     0.031 C 
HETATM   19  C   UNK N   1      37.214  41.240  55.341  0.00  0.00     0.032 C 
HETATM   20  C   UNK N   1      36.159  40.183  54.957  0.00  0.00     0.272 C 
HETATM   21  N   UNK N   1      36.333  39.819  53.545  0.00  0.00     0.092 N 
HETATM   22  C   UNK N   1      37.605  39.080  53.319  0.00  0.00     0.299 C 
BRANCH  21  23
HETATM   23  C   UNK N   1      35.164  39.142  52.958  0.00  0.00     0.302 C 
BRANCH  23  24
HETATM   24  C   UNK N   1      35.580  38.476  51.637  0.00  0.00     0.302 C 
BRANCH  24  25
HETATM   25  N   UNK N   1      36.005  39.458  50.625  0.00  0.00     0.093 N 
HETATM   26  C   UNK N   1      36.671  38.814  49.491  0.00  0.00     0.275 C 
HETATM   27  C   UNK N   1      36.794  39.947  48.504  0.00  0.00     0.069 C 
HETATM   28  C   UNK N   1      35.432  40.623  48.602  0.00  0.00     0.200 C 
HETATM   29  F   UNK N   1      35.578  41.997  48.510  0.00  0.00    -0.248 F 
HETATM   30  C   UNK N   1      34.900  40.182  49.974  0.00  0.00     0.309 C 
ENDBRANCH  24  25
ENDBRANCH  23  24
ENDBRANCH  21  23
ENDBRANCH   4  17
BRANCH   1  31
HETATM   31  C   UNK N   1      41.807  38.838  50.448  0.00  0.00     0.272 C 
HETATM   32  O   UNK N   1      41.839  39.777  49.663  0.00  0.00    -0.266 OA
HETATM   33  N   UNK N   1      42.164  37.581  50.002  0.00  0.00    -0.343 N 
HETATM   34  C   UNK N   1      42.124  36.419  50.898  0.00  0.00     0.152 C 
HETATM   35  C   UNK N   1      42.714  37.456  48.645  0.00  0.00     0.152 C 
HETATM   36  C   UNK N   1      42.362  35.090  50.179  0.00  0.00     0.187 C 
HETATM   37  O   UNK N   1      43.415  35.216  49.248  0.00  0.00    -0.388 OA
HETATM   38  C   UNK N   1      42.922  36.008  48.189  0.00  0.00     0.187 C 
ENDBRANCH   1  31
TORSDOF 5
ENDMDL
MODEL 8
REMARK VINA RESULT:      -8.0      2.627      3.957
REMARK  5 active torsions:
REMARK  status: ('A' for Active; 'I' for Inactive)
REMARK    1  A    between atoms: C_2  and  C_3 
REMARK       I    between atoms: C_2  and  N_33 
REMARK    2  A    between atoms: N_6  and  C_7 
REMARK    3  A    between atoms: N_11  and  C_12 
REMARK    4  A    between atoms: C_12  and  C_13 
REMARK    5  A    between atoms: C_13  and  N_14 
ROOT
HETATM    1  C   UNK N   1      39.014  38.441  52.160  0.00  0.00     0.126 A 
HETATM    2  N   UNK N   1      39.908  38.188  51.191  0.00  0.00    -0.292 N 
ATOM      3  HN  UNK N   1      39.684  37.830  50.263  1.00  0.00     0.187 HD
HETATM    4  N   UNK N   1      41.128  38.476  51.625  0.00  0.00    -0.284 N 
HETATM    5  C   UNK N   1      41.045  38.963  52.898  0.00  0.00     0.072 A 
HETATM    6  C   UNK N   1      39.692  38.901  53.278  0.00  0.00     0.019 A 
HETATM    7  C   UNK N   1      39.077  39.200  54.618  0.00  0.00     0.189 C 
HETATM    8  S   UNK N   1      40.393  39.174  55.840  0.00  0.00     0.180 S 
HETATM    9  O   UNK N   1      40.038  40.039  57.059  0.00  0.00    -0.222 OA
HETATM   10  O   UNK N   1      40.495  37.772  56.459  0.00  0.00    -0.222 OA
HETATM   11  C   UNK N   1      41.966  39.621  55.170  0.00  0.00     0.072 A 
HETATM   12  C   UNK N   1      42.970  40.119  56.007  0.00  0.00     0.024 A 
HETATM   13  C   UNK N   1      44.184  40.532  55.467  0.00  0.00     0.002 A 
HETATM   14  C   UNK N   1      44.390  40.467  54.092  0.00  0.00     0.001 A 
HETATM   15  C   UNK N   1      43.393  39.962  53.249  0.00  0.00     0.015 A 
HETATM   16  C   UNK N   1      42.166  39.496  53.775  0.00  0.00     0.014 A 
ENDROOT
BRANCH   4  17
HETATM   17  C   UNK N   1      42.295  38.148  50.789  0.00  0.00     0.137 C 
HETATM   18  C   UNK N   1      43.386  37.491  51.645  0.00  0.00     0.031 C 
HETATM   19  C   UNK N   1      44.653  37.240  50.796  0.00  0.00     0.032 C 
HETATM   20  C   UNK N   1      44.310  36.944  49.322  0.00  0.00     0.272 C 
HETATM   21  N   UNK N   1      43.014  36.255  49.257  0.00  0.00     0.092 N 
HETATM   22  C   UNK N   1      41.895  37.149  49.660  0.00  0.00     0.299 C 
BRANCH  21  23
HETATM   23  C   UNK N   1      42.770  35.570  47.977  0.00  0.00     0.302 C 
BRANCH  23  24
HETATM   24  C   UNK N   1      43.397  34.168  48.030  0.00  0.00     0.302 C 
BRANCH  24  25
HETATM   25  N   UNK N   1      43.931  33.746  46.723  0.00  0.00     0.093 N 
HETATM   26  C   UNK N   1      45.321  33.296  46.825  0.00  0.00     0.275 C 
HETATM   27  C   UNK N   1      45.568  32.702  45.461  0.00  0.00     0.069 C 
HETATM   28  C   UNK N   1      44.286  31.918  45.203  0.00  0.00     0.200 C 
HETATM   29  F   UNK N   1      43.928  32.025  43.870  0.00  0.00    -0.248 F 
HETATM   30  C   UNK N   1      43.260  32.572  46.140  0.00  0.00     0.309 C 
ENDBRANCH  24  25
ENDBRANCH  23  24
ENDBRANCH  21  23
ENDBRANCH   4  17
BRANCH   1  31
HETATM   31  C   UNK N   1      37.535  38.240  52.026  0.00  0.00     0.272 C 
HETATM   32  O   UNK N   1      36.871  39.182  51.610  0.00  0.00    -0.266 OA
HETATM   33  N   UNK N   1      36.895  37.060  52.346  0.00  0.00    -0.343 N 
HETATM   34  C   UNK N   1      37.642  35.908  52.866  0.00  0.00     0.152 C 
HETATM   35  C   UNK N   1      35.465  36.936  52.026  0.00  0.00     0.152 C 
HETATM   36  C   UNK N   1      36.743  34.767  53.345  0.00  0.00     0.187 C 
HETATM   37  O   UNK N   1      35.687  34.558  52.433  0.00  0.00    -0.388 OA
HETATM   38  C   UNK N   1      34.815  35.659  52.568  0.00  0.00     0.187 C 
ENDBRANCH   1  31
TORSDOF 5
ENDMDL
MODEL 9
REMARK VINA RESULT:      -8.0      3.653      5.175
REMARK  5 active torsions:
REMARK  status: ('A' for Active; 'I' for Inactive)
REMARK    1  A    between atoms: C_2  and  C_3 
REMARK       I    between atoms: C_2  and  N_33 
REMARK    2  A    between atoms: N_6  and  C_7 
REMARK    3  A    between atoms: N_11  and  C_12 
REMARK    4  A    between atoms: C_12  and  C_13 
REMARK    5  A    between atoms: C_13  and  N_14 
ROOT
HETATM    1  C   UNK N   1      37.271  38.099  49.569  0.00  0.00     0.126 A 
HETATM    2  N   UNK N   1      36.814  36.862  49.822  0.00  0.00    -0.292 N 
ATOM      3  HN  UNK N   1      35.834  36.614  49.959  1.00  0.00     0.187 HD
HETATM    4  N   UNK N   1      37.831  36.013  49.868  0.00  0.00    -0.284 N 
HETATM    5  C   UNK N   1      38.989  36.689  49.607  0.00  0.00     0.072 A 
HETATM    6  C   UNK N   1      38.651  38.046  49.461  0.00  0.00     0.019 A 
HETATM    7  C   UNK N   1      39.565  39.229  49.285  0.00  0.00     0.189 C 
HETATM    8  S   UNK N   1      41.212  38.725  49.791  0.00  0.00     0.180 S 
HETATM    9  O   UNK N   1      42.292  39.574  49.102  0.00  0.00    -0.222 OA
HETATM   10  O   UNK N   1      41.427  39.073  51.272  0.00  0.00    -0.222 OA
HETATM   11  C   UNK N   1      41.507  36.997  49.560  0.00  0.00     0.072 A 
HETATM   12  C   UNK N   1      42.816  36.520  49.430  0.00  0.00     0.024 A 
HETATM   13  C   UNK N   1      43.042  35.169  49.182  0.00  0.00     0.002 A 
HETATM   14  C   UNK N   1      41.963  34.300  49.043  0.00  0.00     0.001 A 
HETATM   15  C   UNK N   1      40.652  34.769  49.180  0.00  0.00     0.015 A 
HETATM   16  C   UNK N   1      40.395  36.128  49.474  0.00  0.00     0.014 A 
ENDROOT
BRANCH   4  17
HETATM   17  C   UNK N   1      37.597  34.616  50.272  0.00  0.00     0.137 C 
HETATM   18  C   UNK N   1      36.524  34.558  51.367  0.00  0.00     0.031 C 
HETATM   19  C   UNK N   1      36.349  33.107  51.869  0.00  0.00     0.032 C 
HETATM   20  C   UNK N   1      36.607  32.076  50.751  0.00  0.00     0.272 C 
HETATM   21  N   UNK N   1      36.206  32.653  49.461  0.00  0.00     0.092 N 
HETATM   22  C   UNK N   1      37.099  33.773  49.058  0.00  0.00     0.299 C 
BRANCH  21  23
HETATM   23  C   UNK N   1      36.022  31.653  48.396  0.00  0.00     0.302 C 
BRANCH  23  24
HETATM   24  C   UNK N   1      36.093  32.355  47.031  0.00  0.00     0.302 C 
BRANCH  24  25
HETATM   25  N   UNK N   1      37.165  31.812  46.179  0.00  0.00     0.093 N 
HETATM   26  C   UNK N   1      36.630  30.973  45.103  0.00  0.00     0.275 C 
HETATM   27  C   UNK N   1      37.847  30.736  44.244  0.00  0.00     0.069 C 
HETATM   28  C   UNK N   1      38.496  32.115  44.200  0.00  0.00     0.200 C 
HETATM   29  F   UNK N   1      39.874  31.989  44.247  0.00  0.00    -0.248 F 
HETATM   30  C   UNK N   1      37.930  32.828  45.437  0.00  0.00     0.309 C 
ENDBRANCH  24  25
ENDBRANCH  23  24
ENDBRANCH  21  23
ENDBRANCH   4  17
BRANCH   1  31
HETATM   31  C   UNK N   1      36.405  39.316  49.441  0.00  0.00     0.272 C 
HETATM   32  O   UNK N   1      36.304  40.044  50.420  0.00  0.00    -0.266 OA
HETATM   33  N   UNK N   1      35.724  39.648  48.287  0.00  0.00    -0.343 N 
HETATM   34  C   UNK N   1      35.796  38.798  47.092  0.00  0.00     0.152 C 
HETATM   35  C   UNK N   1      35.033  40.945  48.237  0.00  0.00     0.152 C 
HETATM   36  C   UNK N   1      34.826  39.221  45.987  0.00  0.00     0.187 C 
HETATM   37  O   UNK N   1      34.827  40.625  45.844  0.00  0.00    -0.388 OA
HETATM   38  C   UNK N   1      34.176  41.145  46.984  0.00  0.00     0.187 C 
ENDBRANCH   1  31
TORSDOF 5
ENDMDL
