MODEL 1
REMARK VINA RESULT:      -8.4      0.000      0.000
REMARK  5 active torsions:
REMARK  status: ('A' for Active; 'I' for Inactive)
REMARK    1  A    between atoms: C_2  and  C_3 
REMARK       I    between atoms: C_2  and  N_34 
REMARK    2  A    between atoms: N_6  and  C_7 
REMARK    3  A    between atoms: N_11  and  C_12 
REMARK    4  A    between atoms: C_12  and  C_13 
REMARK    5  A    between atoms: C_13  and  N_14 
ROOT
HETATM    1  C   UNK N   1      38.203  34.560  49.774  0.00  0.00     0.126 A 
HETATM    2  N   UNK N   1      39.085  34.000  48.929  0.00  0.00    -0.292 N 
ATOM      3  HN  UNK N   1      38.889  33.208  48.317  1.00  0.00     0.187 HD
HETATM    4  N   UNK N   1      40.250  34.632  49.009  0.00  0.00    -0.284 N 
HETATM    5  C   UNK N   1      40.144  35.619  49.961  0.00  0.00     0.072 A 
HETATM    6  C   UNK N   1      38.817  35.625  50.412  0.00  0.00     0.019 A 
HETATM    7  C   UNK N   1      38.213  36.580  51.404  0.00  0.00     0.189 C 
HETATM    8  S   UNK N   1      39.040  38.153  51.143  0.00  0.00     0.182 S 
HETATM    9  O   UNK N   1      38.703  39.111  52.295  0.00  0.00    -0.222 OA
HETATM   10  O   UNK N   1      38.487  38.876  49.905  0.00  0.00    -0.222 OA
HETATM   11  C   UNK N   1      40.793  37.858  50.987  0.00  0.00     0.093 A 
HETATM   12  C   UNK N   1      41.759  38.792  51.422  0.00  0.00     0.056 A 
HETATM   13 Cl   UNK N   1      41.319  40.374  52.054  0.00  0.00    -0.083 Cl
HETATM   14  C   UNK N   1      43.114  38.462  51.362  0.00  0.00     0.025 A 
HETATM   15  C   UNK N   1      43.510  37.214  50.893  0.00  0.00     0.003 A 
HETATM   16  C   UNK N   1      42.560  36.298  50.445  0.00  0.00     0.015 A 
HETATM   17  C   UNK N   1      41.190  36.609  50.448  0.00  0.00     0.016 A 
ENDROOT
BRANCH   4  18
HETATM   18  C   UNK N   1      41.271  34.370  47.963  0.00  0.00     0.137 C 
HETATM   19  C   UNK N   1      42.540  33.649  48.477  0.00  0.00     0.031 C 
HETATM   20  C   UNK N   1      43.562  33.514  47.350  0.00  0.00     0.032 C 
HETATM   21  C   UNK N   1      42.905  32.808  46.155  0.00  0.00     0.272 C 
HETATM   22  N   UNK N   1      41.767  33.592  45.621  0.00  0.00     0.092 N 
HETATM   23  C   UNK N   1      40.703  33.799  46.638  0.00  0.00     0.299 C 
BRANCH  22  24
HETATM   24  C   UNK N   1      42.190  34.828  44.918  0.00  0.00     0.302 C 
BRANCH  24  25
HETATM   25  C   UNK N   1      41.680  34.793  43.466  0.00  0.00     0.302 C 
BRANCH  25  26
HETATM   26  N   UNK N   1      40.217  34.970  43.317  0.00  0.00     0.094 N 
HETATM   27  C   UNK N   1      39.844  36.152  42.525  0.00  0.00     0.298 C 
HETATM   28  C   UNK N   1      38.320  36.324  42.589  0.00  0.00     0.198 C 
HETATM   29  O   UNK N   1      37.668  35.173  42.080  0.00  0.00    -0.388 OA
HETATM   30  C   UNK N   1      37.994  34.049  42.879  0.00  0.00     0.198 C 
HETATM   31  C   UNK N   1      39.502  33.776  42.832  0.00  0.00     0.298 C 
ENDBRANCH  25  26
ENDBRANCH  24  25
ENDBRANCH  22  24
ENDBRANCH   4  18
BRANCH   1  32
HETATM   32  C   UNK N   1      36.785  34.105  49.934  0.00  0.00     0.272 C 
HETATM   33  O   UNK N   1      35.949  34.553  49.162  0.00  0.00    -0.266 OA
HETATM   34  N   UNK N   1      36.379  33.243  50.933  0.00  0.00    -0.343 N 
HETATM   35  C   UNK N   1      34.951  32.908  51.017  0.00  0.00     0.152 C 
HETATM   36  C   UNK N   1      37.299  32.878  52.022  0.00  0.00     0.152 C 
HETATM   37  C   UNK N   1      34.617  31.938  52.148  0.00  0.00     0.187 C 
HETATM   38  O   UNK N   1      35.326  32.296  53.315  0.00  0.00    -0.388 OA
HETATM   39  C   UNK N   1      36.677  31.959  53.082  0.00  0.00     0.187 C 
ENDBRANCH   1  32
TORSDOF 5
ENDMDL
MODEL 2
REMARK VINA RESULT:      -8.0      5.377      8.236
REMARK  5 active torsions:
REMARK  status: ('A' for Active; 'I' for Inactive)
REMARK    1  A    between atoms: C_2  and  C_3 
REMARK       I    between atoms: C_2  and  N_34 
REMARK    2  A    between atoms: N_6  and  C_7 
REMARK    3  A    between atoms: N_11  and  C_12 
REMARK    4  A    between atoms: C_12  and  C_13 
REMARK    5  A    between atoms: C_13  and  N_14 
ROOT
HETATM    1  C   UNK N   1      40.987  40.561  56.375  0.00  0.00     0.126 A 
HETATM    2  N   UNK N   1      42.264  40.586  55.955  0.00  0.00    -0.292 N 
ATOM      3  HN  UNK N   1      43.064  40.860  56.525  1.00  0.00     0.187 HD
HETATM    4  N   UNK N   1      42.328  40.202  54.686  0.00  0.00    -0.284 N 
HETATM    5  C   UNK N   1      41.051  39.946  54.244  0.00  0.00     0.072 A 
HETATM    6  C   UNK N   1      40.189  40.111  55.337  0.00  0.00     0.019 A 
HETATM    7  C   UNK N   1      38.705  39.870  55.351  0.00  0.00     0.189 C 
HETATM    8  S   UNK N   1      38.415  38.500  54.226  0.00  0.00     0.182 S 
HETATM    9  O   UNK N   1      36.910  38.368  53.950  0.00  0.00    -0.222 OA
HETATM   10  O   UNK N   1      38.777  37.157  54.878  0.00  0.00    -0.222 OA
HETATM   11  C   UNK N   1      39.364  38.771  52.740  0.00  0.00     0.093 A 
HETATM   12  C   UNK N   1      38.925  38.333  51.471  0.00  0.00     0.056 A 
HETATM   13 Cl   UNK N   1      37.457  37.386  51.261  0.00  0.00    -0.083 Cl
HETATM   14  C   UNK N   1      39.665  38.661  50.334  0.00  0.00     0.025 A 
HETATM   15  C   UNK N   1      40.819  39.429  50.447  0.00  0.00     0.003 A 
HETATM   16  C   UNK N   1      41.265  39.845  51.700  0.00  0.00     0.015 A 
HETATM   17  C   UNK N   1      40.574  39.499  52.872  0.00  0.00     0.016 A 
ENDROOT
BRANCH   4  18
HETATM   18  C   UNK N   1      43.659  39.878  54.110  0.00  0.00     0.137 C 
HETATM   19  C   UNK N   1      44.856  40.328  54.980  0.00  0.00     0.031 C 
HETATM   20  C   UNK N   1      46.170  40.037  54.259  0.00  0.00     0.032 C 
HETATM   21  C   UNK N   1      46.219  38.550  53.881  0.00  0.00     0.272 C 
HETATM   22  N   UNK N   1      45.122  38.189  52.953  0.00  0.00     0.092 N 
HETATM   23  C   UNK N   1      43.782  38.440  53.545  0.00  0.00     0.299 C 
BRANCH  22  24
HETATM   24  C   UNK N   1      45.303  38.750  51.591  0.00  0.00     0.302 C 
BRANCH  24  25
HETATM   25  C   UNK N   1      45.593  37.609  50.600  0.00  0.00     0.302 C 
BRANCH  25  26
HETATM   26  N   UNK N   1      44.642  37.511  49.470  0.00  0.00     0.094 N 
HETATM   27  C   UNK N   1      43.513  36.601  49.725  0.00  0.00     0.298 C 
HETATM   28  C   UNK N   1      42.703  36.451  48.431  0.00  0.00     0.198 C 
HETATM   29  O   UNK N   1      42.222  37.710  47.996  0.00  0.00    -0.388 OA
HETATM   30  C   UNK N   1      43.315  38.563  47.704  0.00  0.00     0.198 C 
HETATM   31  C   UNK N   1      44.156  38.807  48.963  0.00  0.00     0.298 C 
ENDBRANCH  25  26
ENDBRANCH  24  25
ENDBRANCH  22  24
ENDBRANCH   4  18
BRANCH   1  32
HETATM   32  C   UNK N   1      40.552  40.925  57.761  0.00  0.00     0.272 C 
HETATM   33  O   UNK N   1      40.640  42.096  58.102  0.00  0.00    -0.266 OA
HETATM   34  N   UNK N   1      40.101  39.994  58.677  0.00  0.00    -0.343 N 
HETATM   35  C   UNK N   1      39.749  40.467  60.023  0.00  0.00     0.152 C 
HETATM   36  C   UNK N   1      40.211  38.555  58.393  0.00  0.00     0.152 C 
HETATM   37  C   UNK N   1      39.250  39.358  60.947  0.00  0.00     0.187 C 
HETATM   38  O   UNK N   1      40.049  38.205  60.792  0.00  0.00    -0.388 OA
HETATM   39  C   UNK N   1      39.718  37.655  59.535  0.00  0.00     0.187 C 
ENDBRANCH   1  32
TORSDOF 5
ENDMDL
MODEL 3
REMARK VINA RESULT:      -7.9      5.685      9.812
REMARK  5 active torsions:
REMARK  status: ('A' for Active; 'I' for Inactive)
REMARK    1  A    between atoms: C_2  and  C_3 
REMARK       I    between atoms: C_2  and  N_34 
REMARK    2  A    between atoms: N_6  and  C_7 
REMARK    3  A    between atoms: N_11  and  C_12 
REMARK    4  A    between atoms: C_12  and  C_13 
REMARK    5  A    between atoms: C_13  and  N_14 
ROOT
HETATM    1  C   UNK N   1      39.799  38.687  51.716  0.00  0.00     0.126 A 
HETATM    2  N   UNK N   1      39.317  39.007  52.930  0.00  0.00    -0.292 N 
ATOM      3  HN  UNK N   1      38.329  39.017  53.184  1.00  0.00     0.187 HD
HETATM    4  N   UNK N   1      40.318  39.310  53.747  0.00  0.00    -0.284 N 
HETATM    5  C   UNK N   1      41.496  39.218  53.043  0.00  0.00     0.072 A 
HETATM    6  C   UNK N   1      41.181  38.757  51.758  0.00  0.00     0.019 A 
HETATM    7  C   UNK N   1      42.155  38.437  50.657  0.00  0.00     0.189 C 
HETATM    8  S   UNK N   1      43.622  37.792  51.468  0.00  0.00     0.182 S 
HETATM    9  O   UNK N   1      44.776  37.709  50.457  0.00  0.00    -0.222 OA
HETATM   10  O   UNK N   1      43.423  36.331  51.901  0.00  0.00    -0.222 OA
HETATM   11  C   UNK N   1      44.008  38.832  52.865  0.00  0.00     0.093 A 
HETATM   12  C   UNK N   1      45.333  39.053  53.302  0.00  0.00     0.056 A 
HETATM   13 Cl   UNK N   1      46.710  38.235  52.574  0.00  0.00    -0.083 Cl
HETATM   14  C   UNK N   1      45.576  39.954  54.340  0.00  0.00     0.025 A 
HETATM   15  C   UNK N   1      44.521  40.643  54.930  0.00  0.00     0.003 A 
HETATM   16  C   UNK N   1      43.212  40.411  54.514  0.00  0.00     0.015 A 
HETATM   17  C   UNK N   1      42.921  39.481  53.504  0.00  0.00     0.016 A 
ENDROOT
BRANCH   4  18
HETATM   18  C   UNK N   1      40.039  39.410  55.203  0.00  0.00     0.137 C 
HETATM   19  C   UNK N   1      40.578  38.225  56.037  0.00  0.00     0.031 C 
HETATM   20  C   UNK N   1      40.157  38.375  57.498  0.00  0.00     0.032 C 
HETATM   21  C   UNK N   1      40.620  39.743  58.017  0.00  0.00     0.272 C 
HETATM   22  N   UNK N   1      39.988  40.852  57.265  0.00  0.00     0.092 N 
HETATM   23  C   UNK N   1      40.320  40.806  55.817  0.00  0.00     0.299 C 
BRANCH  22  24
HETATM   24  C   UNK N   1      38.542  41.004  57.557  0.00  0.00     0.302 C 
BRANCH  24  25
HETATM   25  C   UNK N   1      38.311  42.304  58.346  0.00  0.00     0.302 C 
BRANCH  25  26
HETATM   26  N   UNK N   1      38.046  43.499  57.513  0.00  0.00     0.094 N 
HETATM   27  C   UNK N   1      37.574  43.179  56.156  0.00  0.00     0.298 C 
HETATM   28  C   UNK N   1      37.504  44.478  55.342  0.00  0.00     0.198 C 
HETATM   29  O   UNK N   1      36.624  45.403  55.956  0.00  0.00    -0.388 OA
HETATM   30  C   UNK N   1      37.113  45.744  57.242  0.00  0.00     0.198 C 
HETATM   31  C   UNK N   1      37.169  44.503  58.141  0.00  0.00     0.298 C 
ENDBRANCH  25  26
ENDBRANCH  24  25
ENDBRANCH  22  24
ENDBRANCH   4  18
BRANCH   1  32
HETATM   32  C   UNK N   1      38.946  38.281  50.554  0.00  0.00     0.272 C 
HETATM   33  O   UNK N   1      38.748  39.106  49.673  0.00  0.00    -0.266 OA
HETATM   34  N   UNK N   1      38.344  37.043  50.458  0.00  0.00    -0.343 N 
HETATM   35  C   UNK N   1      37.489  36.780  49.291  0.00  0.00     0.152 C 
HETATM   36  C   UNK N   1      38.354  36.118  51.602  0.00  0.00     0.152 C 
HETATM   37  C   UNK N   1      36.887  35.376  49.280  0.00  0.00     0.187 C 
HETATM   38  O   UNK N   1      36.438  35.035  50.574  0.00  0.00    -0.388 OA
HETATM   39  C   UNK N   1      37.593  34.808  51.352  0.00  0.00     0.187 C 
ENDBRANCH   1  32
TORSDOF 5
ENDMDL
MODEL 4
REMARK VINA RESULT:      -7.9      4.654      6.999
REMARK  5 active torsions:
REMARK  status: ('A' for Active; 'I' for Inactive)
REMARK    1  A    between atoms: C_2  and  C_3 
REMARK       I    between atoms: C_2  and  N_34 
REMARK    2  A    between atoms: N_6  and  C_7 
REMARK    3  A    between atoms: N_11  and  C_12 
REMARK    4  A    between atoms: C_12  and  C_13 
REMARK    5  A    between atoms: C_13  and  N_14 
ROOT
HETATM    1  C   UNK N   1      39.534  38.699  52.446  0.00  0.00     0.126 A 
HETATM    2  N   UNK N   1      40.872  38.640  52.322  0.00  0.00    -0.292 N 
ATOM      3  HN  UNK N   1      41.369  38.245  51.523  1.00  0.00     0.187 HD
HETATM    4  N   UNK N   1      41.448  39.169  53.393  0.00  0.00    -0.284 N 
HETATM    5  C   UNK N   1      40.462  39.562  54.268  0.00  0.00     0.072 A 
HETATM    6  C   UNK N   1      39.230  39.324  53.644  0.00  0.00     0.019 A 
HETATM    7  C   UNK N   1      37.870  39.660  54.190  0.00  0.00     0.189 C 
HETATM    8  S   UNK N   1      38.077  41.172  55.137  0.00  0.00     0.182 S 
HETATM    9  O   UNK N   1      36.814  41.437  55.970  0.00  0.00    -0.222 OA
HETATM   10  O   UNK N   1      38.160  42.400  54.216  0.00  0.00    -0.222 OA
HETATM   11  C   UNK N   1      39.542  41.021  56.143  0.00  0.00     0.093 A 
HETATM   12  C   UNK N   1      39.659  41.637  57.409  0.00  0.00     0.056 A 
HETATM   13 Cl   UNK N   1      38.414  42.699  58.054  0.00  0.00    -0.083 Cl
HETATM   14  C   UNK N   1      40.792  41.401  58.189  0.00  0.00     0.025 A 
HETATM   15  C   UNK N   1      41.792  40.550  57.731  0.00  0.00     0.003 A 
HETATM   16  C   UNK N   1      41.688  39.956  56.475  0.00  0.00     0.015 A 
HETATM   17  C   UNK N   1      40.586  40.203  55.641  0.00  0.00     0.016 A 
ENDROOT
BRANCH   4  18
HETATM   18  C   UNK N   1      42.902  39.471  53.339  0.00  0.00     0.137 C 
HETATM   19  C   UNK N   1      43.318  40.745  54.111  0.00  0.00     0.031 C 
HETATM   20  C   UNK N   1      44.807  41.018  53.914  0.00  0.00     0.032 C 
HETATM   21  C   UNK N   1      45.606  39.772  54.324  0.00  0.00     0.272 C 
HETATM   22  N   UNK N   1      45.261  38.605  53.480  0.00  0.00     0.092 N 
HETATM   23  C   UNK N   1      43.822  38.246  53.582  0.00  0.00     0.299 C 
BRANCH  22  24
HETATM   24  C   UNK N   1      45.765  38.720  52.090  0.00  0.00     0.302 C 
BRANCH  24  25
HETATM   25  C   UNK N   1      45.112  37.636  51.215  0.00  0.00     0.302 C 
BRANCH  25  26
HETATM   26  N   UNK N   1      44.162  38.147  50.199  0.00  0.00     0.094 N 
HETATM   27  C   UNK N   1      44.810  38.588  48.954  0.00  0.00     0.298 C 
HETATM   28  C   UNK N   1      43.755  39.251  48.060  0.00  0.00     0.198 C 
HETATM   29  O   UNK N   1      42.709  38.342  47.767  0.00  0.00    -0.388 OA
HETATM   30  C   UNK N   1      42.058  37.961  48.966  0.00  0.00     0.198 C 
HETATM   31  C   UNK N   1      43.036  37.243  49.904  0.00  0.00     0.298 C 
ENDBRANCH  25  26
ENDBRANCH  24  25
ENDBRANCH  22  24
ENDBRANCH   4  18
BRANCH   1  32
HETATM   32  C   UNK N   1      38.571  38.200  51.414  0.00  0.00     0.272 C 
HETATM   33  O   UNK N   1      38.292  38.943  50.483  0.00  0.00    -0.266 OA
HETATM   34  N   UNK N   1      37.956  36.966  51.492  0.00  0.00    -0.343 N 
HETATM   35  C   UNK N   1      36.990  36.610  50.443  0.00  0.00     0.152 C 
HETATM   36  C   UNK N   1      38.072  36.151  52.711  0.00  0.00     0.152 C 
HETATM   37  C   UNK N   1      36.382  35.220  50.621  0.00  0.00     0.187 C 
HETATM   38  O   UNK N   1      36.059  35.005  51.978  0.00  0.00    -0.388 OA
HETATM   39  C   UNK N   1      37.284  34.835  52.659  0.00  0.00     0.187 C 
ENDBRANCH   1  32
TORSDOF 5
ENDMDL
MODEL 5
REMARK VINA RESULT:      -7.8      5.688      8.557
REMARK  5 active torsions:
REMARK  status: ('A' for Active; 'I' for Inactive)
REMARK    1  A    between atoms: C_2  and  C_3 
REMARK       I    between atoms: C_2  and  N_34 
REMARK    2  A    between atoms: N_6  and  C_7 
REMARK    3  A    between atoms: N_11  and  C_12 
REMARK    4  A    between atoms: C_12  and  C_13 
REMARK    5  A    between atoms: C_13  and  N_14 
ROOT
HETATM    1  C   UNK N   1      41.328  39.877  55.395  0.00  0.00     0.126 A 
HETATM    2  N   UNK N   1      40.451  39.637  54.405  0.00  0.00    -0.292 N 
ATOM      3  HN  UNK N   1      39.445  39.793  54.463  1.00  0.00     0.187 HD
HETATM    4  N   UNK N   1      41.090  39.165  53.342  0.00  0.00    -0.284 N 
HETATM    5  C   UNK N   1      42.427  39.061  53.649  0.00  0.00     0.072 A 
HETATM    6  C   UNK N   1      42.601  39.574  54.941  0.00  0.00     0.019 A 
HETATM    7  C   UNK N   1      43.905  39.731  55.674  0.00  0.00     0.189 C 
HETATM    8  S   UNK N   1      45.133  40.116  54.422  0.00  0.00     0.182 S 
HETATM    9  O   UNK N   1      46.540  40.008  55.029  0.00  0.00    -0.222 OA
HETATM   10  O   UNK N   1      45.045  41.587  53.988  0.00  0.00    -0.222 OA
HETATM   11  C   UNK N   1      44.898  39.020  53.034  0.00  0.00     0.093 A 
HETATM   12  C   UNK N   1      45.972  38.576  52.230  0.00  0.00     0.056 A 
HETATM   13 Cl   UNK N   1      47.617  39.153  52.459  0.00  0.00    -0.083 Cl
HETATM   14  C   UNK N   1      45.736  37.642  51.219  0.00  0.00     0.025 A 
HETATM   15  C   UNK N   1      44.456  37.139  51.017  0.00  0.00     0.003 A 
HETATM   16  C   UNK N   1      43.392  37.589  51.796  0.00  0.00     0.015 A 
HETATM   17  C   UNK N   1      43.579  38.560  52.793  0.00  0.00     0.016 A 
ENDROOT
BRANCH   4  18
HETATM   18  C   UNK N   1      40.364  39.107  52.047  0.00  0.00     0.137 C 
HETATM   19  C   UNK N   1      41.137  39.717  50.854  0.00  0.00     0.031 C 
HETATM   20  C   UNK N   1      40.270  39.695  49.598  0.00  0.00     0.032 C 
HETATM   21  C   UNK N   1      39.791  38.259  49.341  0.00  0.00     0.272 C 
HETATM   22  N   UNK N   1      38.955  37.758  50.457  0.00  0.00     0.092 N 
HETATM   23  C   UNK N   1      39.695  37.741  51.746  0.00  0.00     0.299 C 
BRANCH  22  24
HETATM   24  C   UNK N   1      37.623  38.406  50.524  0.00  0.00     0.302 C 
BRANCH  24  25
HETATM   25  C   UNK N   1      36.619  37.450  51.193  0.00  0.00     0.302 C 
BRANCH  25  26
HETATM   26  N   UNK N   1      35.772  38.070  52.236  0.00  0.00     0.094 N 
HETATM   27  C   UNK N   1      36.448  38.219  53.535  0.00  0.00     0.298 C 
HETATM   28  C   UNK N   1      35.424  38.705  54.568  0.00  0.00     0.198 C 
HETATM   29  O   UNK N   1      34.862  39.943  54.169  0.00  0.00    -0.388 OA
HETATM   30  C   UNK N   1      34.171  39.779  52.944  0.00  0.00     0.198 C 
HETATM   31  C   UNK N   1      35.136  39.338  51.837  0.00  0.00     0.298 C 
ENDBRANCH  25  26
ENDBRANCH  24  25
ENDBRANCH  22  24
ENDBRANCH   4  18
BRANCH   1  32
HETATM   32  C   UNK N   1      40.952  40.426  56.737  0.00  0.00     0.272 C 
HETATM   33  O   UNK N   1      41.207  41.600  56.968  0.00  0.00    -0.266 OA
HETATM   34  N   UNK N   1      40.376  39.658  57.729  0.00  0.00    -0.343 N 
HETATM   35  C   UNK N   1      40.098  40.299  59.023  0.00  0.00     0.152 C 
HETATM   36  C   UNK N   1      40.280  38.198  57.582  0.00  0.00     0.152 C 
HETATM   37  C   UNK N   1      39.449  39.362  60.040  0.00  0.00     0.187 C 
HETATM   38  O   UNK N   1      40.076  38.098  60.000  0.00  0.00    -0.388 OA
HETATM   39  C   UNK N   1      39.668  37.486  58.796  0.00  0.00     0.187 C 
ENDBRANCH   1  32
TORSDOF 5
ENDMDL
MODEL 6
REMARK VINA RESULT:      -7.7      4.887      7.742
REMARK  5 active torsions:
REMARK  status: ('A' for Active; 'I' for Inactive)
REMARK    1  A    between atoms: C_2  and  C_3 
REMARK       I    between atoms: C_2  and  N_34 
REMARK    2  A    between atoms: N_6  and  C_7 
REMARK    3  A    between atoms: N_11  and  C_12 
REMARK    4  A    between atoms: C_12  and  C_13 
REMARK    5  A    between atoms: C_13  and  N_14 
ROOT
HETATM    1  C   UNK N   1      41.304  39.822  55.408  0.00  0.00     0.126 A 
HETATM    2  N   UNK N   1      40.444  39.549  54.411  0.00  0.00    -0.292 N 
ATOM      3  HN  UNK N   1      39.433  39.674  54.459  1.00  0.00     0.187 HD
HETATM    4  N   UNK N   1      41.107  39.092  53.357  0.00  0.00    -0.284 N 
HETATM    5  C   UNK N   1      42.444  39.030  53.677  0.00  0.00     0.072 A 
HETATM    6  C   UNK N   1      42.589  39.556  54.967  0.00  0.00     0.019 A 
HETATM    7  C   UNK N   1      43.881  39.756  55.712  0.00  0.00     0.189 C 
HETATM    8  S   UNK N   1      45.109  40.172  54.469  0.00  0.00     0.182 S 
HETATM    9  O   UNK N   1      46.512  40.110  55.090  0.00  0.00    -0.222 OA
HETATM   10  O   UNK N   1      44.979  41.638  54.026  0.00  0.00    -0.222 OA
HETATM   11  C   UNK N   1      44.921  39.061  53.086  0.00  0.00     0.093 A 
HETATM   12  C   UNK N   1      46.015  38.646  52.294  0.00  0.00     0.056 A 
HETATM   13 Cl   UNK N   1      47.640  39.275  52.535  0.00  0.00    -0.083 Cl
HETATM   14  C   UNK N   1      45.818  37.700  51.287  0.00  0.00     0.025 A 
HETATM   15  C   UNK N   1      44.556  37.156  51.076  0.00  0.00     0.003 A 
HETATM   16  C   UNK N   1      43.471  37.578  51.842  0.00  0.00     0.015 A 
HETATM   17  C   UNK N   1      43.618  38.560  52.835  0.00  0.00     0.016 A 
ENDROOT
BRANCH   4  18
HETATM   18  C   UNK N   1      40.395  39.004  52.056  0.00  0.00     0.137 C 
HETATM   19  C   UNK N   1      41.098  39.745  50.894  0.00  0.00     0.031 C 
HETATM   20  C   UNK N   1      40.241  39.676  49.631  0.00  0.00     0.032 C 
HETATM   21  C   UNK N   1      39.929  38.207  49.314  0.00  0.00     0.272 C 
HETATM   22  N   UNK N   1      39.153  37.569  50.403  0.00  0.00     0.092 N 
HETATM   23  C   UNK N   1      39.887  37.585  51.695  0.00  0.00     0.299 C 
BRANCH  22  24
HETATM   24  C   UNK N   1      37.756  38.059  50.486  0.00  0.00     0.302 C 
BRANCH  24  25
HETATM   25  C   UNK N   1      36.854  36.946  51.049  0.00  0.00     0.302 C 
BRANCH  25  26
HETATM   26  N   UNK N   1      37.162  35.586  50.552  0.00  0.00     0.094 N 
HETATM   27  C   UNK N   1      36.693  34.512  51.442  0.00  0.00     0.298 C 
HETATM   28  C   UNK N   1      37.220  33.172  50.913  0.00  0.00     0.198 C 
HETATM   29  O   UNK N   1      36.762  32.943  49.592  0.00  0.00    -0.388 OA
HETATM   30  C   UNK N   1      37.259  33.953  48.733  0.00  0.00     0.198 C 
HETATM   31  C   UNK N   1      36.738  35.329  49.164  0.00  0.00     0.298 C 
ENDBRANCH  25  26
ENDBRANCH  24  25
ENDBRANCH  22  24
ENDBRANCH   4  18
BRANCH   1  32
HETATM   32  C   UNK N   1      40.898  40.366  56.743  0.00  0.00     0.272 C 
HETATM   33  O   UNK N   1      41.111  41.550  56.969  0.00  0.00    -0.266 OA
HETATM   34  N   UNK N   1      40.340  39.586  57.736  0.00  0.00    -0.343 N 
HETATM   35  C   UNK N   1      40.030  40.225  59.023  0.00  0.00     0.152 C 
HETATM   36  C   UNK N   1      40.295  38.122  57.597  0.00  0.00     0.152 C 
HETATM   37  C   UNK N   1      39.404  39.274  60.041  0.00  0.00     0.187 C 
HETATM   38  O   UNK N   1      40.074  38.032  60.015  0.00  0.00    -0.388 OA
HETATM   39  C   UNK N   1      39.697  37.398  58.812  0.00  0.00     0.187 C 
ENDBRANCH   1  32
TORSDOF 5
ENDMDL
MODEL 7
REMARK VINA RESULT:      -7.6      4.981      9.171
REMARK  5 active torsions:
REMARK  status: ('A' for Active; 'I' for Inactive)
REMARK    1  A    between atoms: C_2  and  C_3 
REMARK       I    between atoms: C_2  and  N_34 
REMARK    2  A    between atoms: N_6  and  C_7 
REMARK    3  A    between atoms: N_11  and  C_12 
REMARK    4  A    between atoms: C_12  and  C_13 
REMARK    5  A    between atoms: C_13  and  N_14 
ROOT
HETATM    1  C   UNK N   1      40.598  39.055  51.856  0.00  0.00     0.126 A 
HETATM    2  N   UNK N   1      40.216  39.264  53.128  0.00  0.00    -0.292 N 
ATOM      3  HN  UNK N   1      39.249  39.326  53.446  1.00  0.00     0.187 HD
HETATM    4  N   UNK N   1      41.285  39.380  53.906  0.00  0.00    -0.284 N 
HETATM    5  C   UNK N   1      42.409  39.276  53.120  0.00  0.00     0.072 A 
HETATM    6  C   UNK N   1      41.981  39.003  51.813  0.00  0.00     0.019 A 
HETATM    7  C   UNK N   1      42.859  38.739  50.621  0.00  0.00     0.189 C 
HETATM    8  S   UNK N   1      44.304  37.877  51.252  0.00  0.00     0.182 S 
HETATM    9  O   UNK N   1      45.387  37.822  50.164  0.00  0.00    -0.222 OA
HETATM   10  O   UNK N   1      43.996  36.397  51.524  0.00  0.00    -0.222 OA
HETATM   11  C   UNK N   1      44.860  38.703  52.732  0.00  0.00     0.093 A 
HETATM   12  C   UNK N   1      46.222  38.757  53.103  0.00  0.00     0.056 A 
HETATM   13 Cl   UNK N   1      47.476  37.921  52.195  0.00  0.00    -0.083 Cl
HETATM   14  C   UNK N   1      46.604  39.500  54.221  0.00  0.00     0.025 A 
HETATM   15  C   UNK N   1      45.652  40.198  54.955  0.00  0.00     0.003 A 
HETATM   16  C   UNK N   1      44.305  40.131  54.604  0.00  0.00     0.015 A 
HETATM   17  C   UNK N   1      43.874  39.359  53.513  0.00  0.00     0.016 A 
ENDROOT
BRANCH   4  18
HETATM   18  C   UNK N   1      41.097  39.324  55.379  0.00  0.00     0.137 C 
HETATM   19  C   UNK N   1      41.820  40.450  56.156  0.00  0.00     0.031 C 
HETATM   20  C   UNK N   1      41.645  40.248  57.659  0.00  0.00     0.032 C 
HETATM   21  C   UNK N   1      40.147  40.151  57.984  0.00  0.00     0.272 C 
HETATM   22  N   UNK N   1      39.521  38.989  57.312  0.00  0.00     0.092 N 
HETATM   23  C   UNK N   1      39.637  39.069  55.832  0.00  0.00     0.299 C 
BRANCH  22  24
HETATM   24  C   UNK N   1      39.937  37.687  57.888  0.00  0.00     0.302 C 
BRANCH  24  25
HETATM   25  C   UNK N   1      38.708  36.965  58.467  0.00  0.00     0.302 C 
BRANCH  25  26
HETATM   26  N   UNK N   1      37.862  36.277  57.465  0.00  0.00     0.094 N 
HETATM   27  C   UNK N   1      38.631  35.552  56.441  0.00  0.00     0.298 C 
HETATM   28  C   UNK N   1      37.659  35.035  55.373  0.00  0.00     0.198 C 
HETATM   29  O   UNK N   1      36.693  34.176  55.952  0.00  0.00    -0.388 OA
HETATM   30  C   UNK N   1      35.924  34.895  56.900  0.00  0.00     0.198 C 
HETATM   31  C   UNK N   1      36.816  35.410  58.036  0.00  0.00     0.298 C 
ENDBRANCH  25  26
ENDBRANCH  24  25
ENDBRANCH  22  24
ENDBRANCH   4  18
BRANCH   1  32
HETATM   32  C   UNK N   1      39.649  38.868  50.713  0.00  0.00     0.272 C 
HETATM   33  O   UNK N   1      39.591  39.749  49.866  0.00  0.00    -0.266 OA
HETATM   34  N   UNK N   1      38.813  37.775  50.600  0.00  0.00    -0.343 N 
HETATM   35  C   UNK N   1      37.889  37.729  49.458  0.00  0.00     0.152 C 
HETATM   36  C   UNK N   1      38.675  36.823  51.713  0.00  0.00     0.152 C 
HETATM   37  C   UNK N   1      37.023  36.470  49.424  0.00  0.00     0.187 C 
HETATM   38  O   UNK N   1      36.555  36.174  50.722  0.00  0.00    -0.388 OA
HETATM   39  C   UNK N   1      37.666  35.697  51.450  0.00  0.00     0.187 C 
ENDBRANCH   1  32
TORSDOF 5
ENDMDL
MODEL 8
REMARK VINA RESULT:      -7.6      3.010      8.196
REMARK  5 active torsions:
REMARK  status: ('A' for Active; 'I' for Inactive)
REMARK    1  A    between atoms: C_2  and  C_3 
REMARK       I    between atoms: C_2  and  N_34 
REMARK    2  A    between atoms: N_6  and  C_7 
REMARK    3  A    between atoms: N_11  and  C_12 
REMARK    4  A    between atoms: C_12  and  C_13 
REMARK    5  A    between atoms: C_13  and  N_14 
ROOT
HETATM    1  C   UNK N   1      40.419  34.875  48.254  0.00  0.00     0.126 A 
HETATM    2  N   UNK N   1      39.272  34.437  48.803  0.00  0.00    -0.292 N 
ATOM      3  HN  UNK N   1      38.730  33.640  48.468  1.00  0.00     0.187 HD
HETATM    4  N   UNK N   1      38.952  35.195  49.844  0.00  0.00    -0.284 N 
HETATM    5  C   UNK N   1      39.899  36.185  49.968  0.00  0.00     0.072 A 
HETATM    6  C   UNK N   1      40.878  35.952  48.994  0.00  0.00     0.019 A 
HETATM    7  C   UNK N   1      42.145  36.737  48.792  0.00  0.00     0.189 C 
HETATM    8  S   UNK N   1      42.667  37.263  50.429  0.00  0.00     0.182 S 
HETATM    9  O   UNK N   1      43.784  38.310  50.303  0.00  0.00    -0.222 OA
HETATM   10  O   UNK N   1      43.339  36.114  51.196  0.00  0.00    -0.222 OA
HETATM   11  C   UNK N   1      41.244  37.881  51.311  0.00  0.00     0.093 A 
HETATM   12  C   UNK N   1      41.337  38.919  52.265  0.00  0.00     0.056 A 
HETATM   13 Cl   UNK N   1      42.878  39.617  52.746  0.00  0.00    -0.083 Cl
HETATM   14  C   UNK N   1      40.174  39.424  52.849  0.00  0.00     0.025 A 
HETATM   15  C   UNK N   1      38.931  38.921  52.482  0.00  0.00     0.003 A 
HETATM   16  C   UNK N   1      38.838  37.884  51.556  0.00  0.00     0.015 A 
HETATM   17  C   UNK N   1      39.986  37.318  50.978  0.00  0.00     0.016 A 
ENDROOT
BRANCH   4  18
HETATM   18  C   UNK N   1      37.890  34.719  50.767  0.00  0.00     0.137 C 
HETATM   19  C   UNK N   1      36.587  35.551  50.723  0.00  0.00     0.031 C 
HETATM   20  C   UNK N   1      35.600  35.041  51.771  0.00  0.00     0.032 C 
HETATM   21  C   UNK N   1      35.369  33.538  51.556  0.00  0.00     0.272 C 
HETATM   22  N   UNK N   1      36.622  32.767  51.724  0.00  0.00     0.092 N 
HETATM   23  C   UNK N   1      37.670  33.184  50.756  0.00  0.00     0.299 C 
BRANCH  22  24
HETATM   24  C   UNK N   1      37.081  32.701  53.133  0.00  0.00     0.302 C 
BRANCH  24  25
HETATM   25  C   UNK N   1      37.458  31.250  53.484  0.00  0.00     0.302 C 
BRANCH  25  26
HETATM   26  N   UNK N   1      37.340  30.907  54.919  0.00  0.00     0.094 N 
HETATM   27  C   UNK N   1      37.592  29.487  55.209  0.00  0.00     0.298 C 
HETATM   28  C   UNK N   1      37.271  29.224  56.686  0.00  0.00     0.198 C 
HETATM   29  O   UNK N   1      38.073  30.039  57.523  0.00  0.00    -0.388 OA
HETATM   30  C   UNK N   1      37.787  31.405  57.272  0.00  0.00     0.198 C 
HETATM   31  C   UNK N   1      38.127  31.767  55.822  0.00  0.00     0.298 C 
ENDBRANCH  25  26
ENDBRANCH  24  25
ENDBRANCH  22  24
ENDBRANCH   4  18
BRANCH   1  32
HETATM   32  C   UNK N   1      41.078  34.244  47.067  0.00  0.00     0.272 C 
HETATM   33  O   UNK N   1      40.556  34.399  45.971  0.00  0.00    -0.266 OA
HETATM   34  N   UNK N   1      42.214  33.466  47.162  0.00  0.00    -0.343 N 
HETATM   35  C   UNK N   1      42.739  32.858  45.931  0.00  0.00     0.152 C 
HETATM   36  C   UNK N   1      42.728  33.054  48.478  0.00  0.00     0.152 C 
HETATM   37  C   UNK N   1      44.004  32.031  46.151  0.00  0.00     0.187 C 
HETATM   38  O   UNK N   1      43.873  31.251  47.321  0.00  0.00    -0.388 OA
HETATM   39  C   UNK N   1      43.962  32.145  48.410  0.00  0.00     0.187 C 
ENDBRANCH   1  32
TORSDOF 5
ENDMDL
MODEL 9
REMARK VINA RESULT:      -7.5      3.763      7.776
REMARK  5 active torsions:
REMARK  status: ('A' for Active; 'I' for Inactive)
REMARK    1  A    between atoms: C_2  and  C_3 
REMARK       I    between atoms: C_2  and  N_34 
REMARK    2  A    between atoms: N_6  and  C_7 
REMARK    3  A    between atoms: N_11  and  C_12 
REMARK    4  A    between atoms: C_12  and  C_13 
REMARK    5  A    between atoms: C_13  and  N_14 
ROOT
HETATM    1  C   UNK N   1      38.008  34.783  50.290  0.00  0.00     0.126 A 
HETATM    2  N   UNK N   1      37.445  35.658  51.143  0.00  0.00    -0.292 N 
ATOM      3  HN  UNK N   1      36.591  35.491  51.674  1.00  0.00     0.187 HD
HETATM    4  N   UNK N   1      38.167  36.771  51.188  0.00  0.00    -0.284 N 
HETATM    5  C   UNK N   1      39.222  36.641  50.315  0.00  0.00     0.072 A 
HETATM    6  C   UNK N   1      39.167  35.347  49.782  0.00  0.00     0.019 A 
HETATM    7  C   UNK N   1      40.156  34.726  48.834  0.00  0.00     0.189 C 
HETATM    8  S   UNK N   1      41.758  35.408  49.274  0.00  0.00     0.182 S 
HETATM    9  O   UNK N   1      42.783  35.061  48.184  0.00  0.00    -0.222 OA
HETATM   10  O   UNK N   1      42.328  34.728  50.528  0.00  0.00    -0.222 OA
HETATM   11  C   UNK N   1      41.583  37.166  49.517  0.00  0.00     0.093 A 
HETATM   12  C   UNK N   1      42.621  38.078  49.222  0.00  0.00     0.056 A 
HETATM   13 Cl   UNK N   1      44.213  37.549  48.694  0.00  0.00    -0.083 Cl
HETATM   14  C   UNK N   1      42.389  39.449  49.342  0.00  0.00     0.025 A 
HETATM   15  C   UNK N   1      41.139  39.916  49.733  0.00  0.00     0.003 A 
HETATM   16  C   UNK N   1      40.120  39.018  50.043  0.00  0.00     0.015 A 
HETATM   17  C   UNK N   1      40.325  37.631  49.978  0.00  0.00     0.016 A 
ENDROOT
BRANCH   4  18
HETATM   18  C   UNK N   1      37.894  37.748  52.273  0.00  0.00     0.137 C 
HETATM   19  C   UNK N   1      36.539  38.484  52.142  0.00  0.00     0.031 C 
HETATM   20  C   UNK N   1      36.399  39.529  53.246  0.00  0.00     0.032 C 
HETATM   21  C   UNK N   1      36.591  38.851  54.610  0.00  0.00     0.272 C 
HETATM   22  N   UNK N   1      37.944  38.261  54.737  0.00  0.00     0.092 N 
HETATM   23  C   UNK N   1      38.204  37.228  53.700  0.00  0.00     0.299 C 
BRANCH  22  24
HETATM   24  C   UNK N   1      39.014  39.281  54.865  0.00  0.00     0.302 C 
BRANCH  24  25
HETATM   25  C   UNK N   1      40.204  38.682  55.635  0.00  0.00     0.302 C 
BRANCH  25  26
HETATM   26  N   UNK N   1      41.527  38.915  55.012  0.00  0.00     0.094 N 
HETATM   27  C   UNK N   1      41.452  39.306  53.596  0.00  0.00     0.298 C 
HETATM   28  C   UNK N   1      42.875  39.347  53.023  0.00  0.00     0.198 C 
HETATM   29  O   UNK N   1      43.674  40.271  53.739  0.00  0.00    -0.388 OA
HETATM   30  C   UNK N   1      43.783  39.860  55.091  0.00  0.00     0.198 C 
HETATM   31  C   UNK N   1      42.402  39.838  55.758  0.00  0.00     0.298 C 
ENDBRANCH  25  26
ENDBRANCH  24  25
ENDBRANCH  22  24
ENDBRANCH   4  18
BRANCH   1  32
HETATM   32  C   UNK N   1      37.463  33.419  50.004  0.00  0.00     0.272 C 
HETATM   33  O   UNK N   1      37.704  32.525  50.804  0.00  0.00    -0.266 OA
HETATM   34  N   UNK N   1      36.743  33.119  48.864  0.00  0.00    -0.343 N 
HETATM   35  C   UNK N   1      36.304  31.730  48.672  0.00  0.00     0.152 C 
HETATM   36  C   UNK N   1      36.643  34.095  47.768  0.00  0.00     0.152 C 
HETATM   37  C   UNK N   1      35.506  31.516  47.387  0.00  0.00     0.187 C 
HETATM   38  O   UNK N   1      36.110  32.218  46.322  0.00  0.00    -0.388 OA
HETATM   39  C   UNK N   1      35.858  33.587  46.551  0.00  0.00     0.187 C 
ENDBRANCH   1  32
TORSDOF 5
ENDMDL
