MODEL 1
REMARK VINA RESULT:      -8.8      0.000      0.000
REMARK  5 active torsions:
REMARK  status: ('A' for Active; 'I' for Inactive)
REMARK    1  A    between atoms: C_2  and  C_3 
REMARK       I    between atoms: C_2  and  N_34 
REMARK    2  A    between atoms: N_6  and  C_7 
REMARK    3  A    between atoms: N_11  and  C_12 
REMARK    4  A    between atoms: C_12  and  C_13 
REMARK    5  A    between atoms: C_13  and  C_14 
ROOT
HETATM    1  C   UNK N   1      38.501  32.873  44.550  0.00  0.00     0.126 A 
HETATM    2  N   UNK N   1      39.724  32.818  45.097  0.00  0.00    -0.292 N 
ATOM      3  HN  UNK N   1      39.915  32.733  46.096  1.00  0.00     0.187 HD
HETATM    4  N   UNK N   1      40.646  32.889  44.151  0.00  0.00    -0.284 N 
HETATM    5  C   UNK N   1      40.021  32.996  42.929  0.00  0.00     0.072 A 
HETATM    6  C   UNK N   1      38.637  32.994  43.175  0.00  0.00     0.019 A 
HETATM    7  C   UNK N   1      37.535  33.108  42.156  0.00  0.00     0.189 C 
HETATM    8  S   UNK N   1      38.144  34.184  40.870  0.00  0.00     0.183 S 
HETATM    9  O   UNK N   1      38.004  35.659  41.272  0.00  0.00    -0.222 OA
HETATM   10  O   UNK N   1      37.268  34.079  39.612  0.00  0.00    -0.222 OA
HETATM   11  C   UNK N   1      39.840  33.797  40.514  0.00  0.00     0.110 A 
HETATM   12  C   UNK N   1      40.378  34.062  39.244  0.00  0.00     0.138 A 
HETATM   13  F   UNK N   1      39.617  34.625  38.273  0.00  0.00    -0.204 F 
HETATM   14  C   UNK N   1      41.708  33.752  38.973  0.00  0.00     0.044 A 
HETATM   15  C   UNK N   1      42.501  33.178  39.959  0.00  0.00     0.004 A 
HETATM   16  C   UNK N   1      41.973  32.919  41.227  0.00  0.00     0.015 A 
HETATM   17  C   UNK N   1      40.635  33.223  41.543  0.00  0.00     0.018 A 
ENDROOT
BRANCH   4  18
HETATM   18  C   UNK N   1      42.060  32.966  44.559  0.00  0.00     0.126 C 
HETATM   19  C   UNK N   1      42.885  31.717  44.171  0.00  0.00     0.030 C 
HETATM   20  C   UNK N   1      44.065  31.502  45.128  0.00  0.00     0.022 C 
HETATM   21  C   UNK N   1      44.693  32.838  45.519  0.00  0.00     0.117 C 
HETATM   22  N   UNK N   1      43.732  33.703  46.261  0.00  0.00    -0.410 N 
HETATM   23  C   UNK N   1      42.280  33.522  45.974  0.00  0.00     0.144 C 
BRANCH  22  24
HETATM   24  C   UNK N   1      44.009  33.848  47.705  0.00  0.00     0.117 C 
BRANCH  24  25
HETATM   25  C   UNK N   1      42.815  33.438  48.600  0.00  0.00     0.024 C 
BRANCH  25  26
HETATM   26  C   UNK N   1      42.285  34.612  49.441  0.00  0.00    -0.009 C 
HETATM   27  C   UNK N   1      40.821  34.928  49.127  0.00  0.00     0.031 C 
HETATM   28  C   UNK N   1      40.366  36.018  50.140  0.00  0.00     0.168 C 
HETATM   29  O   UNK N   1      41.326  37.046  50.410  0.00  0.00    -0.391 OA
HETATM   30  C   UNK N   1      42.261  37.175  49.362  0.00  0.00     0.168 C 
HETATM   31  C   UNK N   1      43.123  35.904  49.225  0.00  0.00     0.031 C 
ENDBRANCH  25  26
ENDBRANCH  24  25
ENDBRANCH  22  24
ENDBRANCH   4  18
BRANCH   1  32
HETATM   32  C   UNK N   1      37.259  32.962  45.372  0.00  0.00     0.272 C 
HETATM   33  O   UNK N   1      36.867  34.073  45.697  0.00  0.00    -0.266 OA
HETATM   34  N   UNK N   1      36.608  31.854  45.865  0.00  0.00    -0.343 N 
HETATM   35  C   UNK N   1      35.652  32.010  46.955  0.00  0.00     0.152 C 
HETATM   36  C   UNK N   1      36.829  30.497  45.381  0.00  0.00     0.152 C 
HETATM   37  C   UNK N   1      35.194  30.631  47.471  0.00  0.00     0.187 C 
HETATM   38  O   UNK N   1      36.311  29.787  47.723  0.00  0.00    -0.388 OA
HETATM   39  C   UNK N   1      37.166  29.607  46.586  0.00  0.00     0.187 C 
ENDBRANCH   1  32
TORSDOF 5
ENDMDL
MODEL 2
REMARK VINA RESULT:      -8.7      7.042     11.244
REMARK  5 active torsions:
REMARK  status: ('A' for Active; 'I' for Inactive)
REMARK    1  A    between atoms: C_2  and  C_3 
REMARK       I    between atoms: C_2  and  N_34 
REMARK    2  A    between atoms: N_6  and  C_7 
REMARK    3  A    between atoms: N_11  and  C_12 
REMARK    4  A    between atoms: C_12  and  C_13 
REMARK    5  A    between atoms: C_13  and  C_14 
ROOT
HETATM    1  C   UNK N   1      39.263  38.665  52.439  0.00  0.00     0.126 A 
HETATM    2  N   UNK N   1      40.032  38.091  51.502  0.00  0.00    -0.292 N 
ATOM      3  HN  UNK N   1      39.683  37.578  50.693  1.00  0.00     0.187 HD
HETATM    4  N   UNK N   1      41.309  38.289  51.784  0.00  0.00    -0.284 N 
HETATM    5  C   UNK N   1      41.400  39.019  52.947  0.00  0.00     0.072 A 
HETATM    6  C   UNK N   1      40.086  39.262  53.382  0.00  0.00     0.019 A 
HETATM    7  C   UNK N   1      39.664  40.007  54.620  0.00  0.00     0.189 C 
HETATM    8  S   UNK N   1      40.895  39.663  55.864  0.00  0.00     0.183 S 
HETATM    9  O   UNK N   1      40.644  38.301  56.527  0.00  0.00    -0.222 OA
HETATM   10  O   UNK N   1      40.779  40.650  57.035  0.00  0.00    -0.222 OA
HETATM   11  C   UNK N   1      42.515  39.708  55.135  0.00  0.00     0.110 A 
HETATM   12  C   UNK N   1      43.637  40.026  55.918  0.00  0.00     0.138 A 
HETATM   13  F   UNK N   1      43.505  40.293  57.241  0.00  0.00    -0.204 F 
HETATM   14  C   UNK N   1      44.902  40.062  55.339  0.00  0.00     0.044 A 
HETATM   15  C   UNK N   1      45.052  39.787  53.985  0.00  0.00     0.004 A 
HETATM   16  C   UNK N   1      43.941  39.463  53.203  0.00  0.00     0.015 A 
HETATM   17  C   UNK N   1      42.645  39.409  53.752  0.00  0.00     0.018 A 
ENDROOT
BRANCH   4  18
HETATM   18  C   UNK N   1      42.321  37.631  50.937  0.00  0.00     0.126 C 
HETATM   19  C   UNK N   1      43.101  38.611  50.030  0.00  0.00     0.030 C 
HETATM   20  C   UNK N   1      43.605  37.921  48.756  0.00  0.00     0.022 C 
HETATM   21  C   UNK N   1      44.075  36.500  49.062  0.00  0.00     0.117 C 
HETATM   22  N   UNK N   1      42.961  35.646  49.564  0.00  0.00    -0.410 N 
HETATM   23  C   UNK N   1      41.846  36.324  50.285  0.00  0.00     0.144 C 
BRANCH  22  24
HETATM   24  C   UNK N   1      42.479  34.625  48.611  0.00  0.00     0.117 C 
BRANCH  24  25
HETATM   25  C   UNK N   1      43.401  33.385  48.527  0.00  0.00     0.024 C 
BRANCH  25  26
HETATM   26  C   UNK N   1      44.014  33.208  47.127  0.00  0.00    -0.009 C 
HETATM   27  C   UNK N   1      43.839  31.781  46.601  0.00  0.00     0.031 C 
HETATM   28  C   UNK N   1      44.356  31.773  45.134  0.00  0.00     0.168 C 
HETATM   29  O   UNK N   1      45.549  32.530  44.898  0.00  0.00    -0.391 OA
HETATM   30  C   UNK N   1      46.299  32.703  46.079  0.00  0.00     0.168 C 
HETATM   31  C   UNK N   1      45.529  33.554  47.109  0.00  0.00     0.031 C 
ENDBRANCH  25  26
ENDBRANCH  24  25
ENDBRANCH  22  24
ENDBRANCH   4  18
BRANCH   1  32
HETATM   32  C   UNK N   1      37.782  38.490  52.477  0.00  0.00     0.272 C 
HETATM   33  O   UNK N   1      37.100  39.233  51.785  0.00  0.00    -0.266 OA
HETATM   34  N   UNK N   1      37.154  37.612  53.331  0.00  0.00    -0.343 N 
HETATM   35  C   UNK N   1      35.727  37.761  53.592  0.00  0.00     0.152 C 
HETATM   36  C   UNK N   1      37.836  36.530  54.031  0.00  0.00     0.152 C 
HETATM   37  C   UNK N   1      35.282  36.800  54.713  0.00  0.00     0.187 C 
HETATM   38  O   UNK N   1      36.146  36.900  55.838  0.00  0.00    -0.388 OA
HETATM   39  C   UNK N   1      37.525  36.659  55.529  0.00  0.00     0.187 C 
ENDBRANCH   1  32
TORSDOF 5
ENDMDL
MODEL 3
REMARK VINA RESULT:      -8.2      8.914     11.564
REMARK  5 active torsions:
REMARK  status: ('A' for Active; 'I' for Inactive)
REMARK    1  A    between atoms: C_2  and  C_3 
REMARK       I    between atoms: C_2  and  N_34 
REMARK    2  A    between atoms: N_6  and  C_7 
REMARK    3  A    between atoms: N_11  and  C_12 
REMARK    4  A    between atoms: C_12  and  C_13 
REMARK    5  A    between atoms: C_13  and  C_14 
ROOT
HETATM    1  C   UNK N   1      38.083  38.369  52.888  0.00  0.00     0.126 A 
HETATM    2  N   UNK N   1      38.911  38.453  51.836  0.00  0.00    -0.292 N 
ATOM      3  HN  UNK N   1      38.692  38.132  50.893  1.00  0.00     0.187 HD
HETATM    4  N   UNK N   1      40.052  39.013  52.203  0.00  0.00    -0.284 N 
HETATM    5  C   UNK N   1      39.988  39.313  53.545  0.00  0.00     0.072 A 
HETATM    6  C   UNK N   1      38.724  38.897  53.999  0.00  0.00     0.019 A 
HETATM    7  C   UNK N   1      38.187  38.995  55.401  0.00  0.00     0.189 C 
HETATM    8  S   UNK N   1      39.576  38.759  56.495  0.00  0.00     0.183 S 
HETATM    9  O   UNK N   1      39.900  37.267  56.661  0.00  0.00    -0.222 OA
HETATM   10  O   UNK N   1      39.228  39.204  57.923  0.00  0.00    -0.222 OA
HETATM   11  C   UNK N   1      40.990  39.634  55.869  0.00  0.00     0.110 A 
HETATM   12  C   UNK N   1      41.994  40.080  56.744  0.00  0.00     0.138 A 
HETATM   13  F   UNK N   1      41.906  39.844  58.076  0.00  0.00    -0.204 F 
HETATM   14  C   UNK N   1      43.097  40.768  56.245  0.00  0.00     0.044 A 
HETATM   15  C   UNK N   1      43.201  41.014  54.881  0.00  0.00     0.004 A 
HETATM   16  C   UNK N   1      42.210  40.566  54.006  0.00  0.00     0.015 A 
HETATM   17  C   UNK N   1      41.081  39.861  54.469  0.00  0.00     0.018 A 
ENDROOT
BRANCH   4  18
HETATM   18  C   UNK N   1      41.143  39.085  51.215  0.00  0.00     0.126 C 
HETATM   19  C   UNK N   1      40.660  39.406  49.782  0.00  0.00     0.030 C 
HETATM   20  C   UNK N   1      41.613  38.832  48.724  0.00  0.00     0.022 C 
HETATM   21  C   UNK N   1      43.066  38.972  49.175  0.00  0.00     0.117 C 
HETATM   22  N   UNK N   1      43.335  38.194  50.417  0.00  0.00    -0.410 N 
HETATM   23  C   UNK N   1      42.194  37.974  51.352  0.00  0.00     0.144 C 
BRANCH  22  24
HETATM   24  C   UNK N   1      44.153  36.978  50.227  0.00  0.00     0.117 C 
BRANCH  24  25
HETATM   25  C   UNK N   1      45.396  37.211  49.337  0.00  0.00     0.024 C 
BRANCH  25  26
HETATM   26  C   UNK N   1      46.409  38.167  49.988  0.00  0.00    -0.009 C 
HETATM   27  C   UNK N   1      47.811  38.013  49.391  0.00  0.00     0.031 C 
HETATM   28  C   UNK N   1      48.695  39.128  50.019  0.00  0.00     0.168 C 
HETATM   29  O   UNK N   1      48.484  39.368  51.415  0.00  0.00    -0.391 OA
HETATM   30  C   UNK N   1      47.921  38.246  52.058  0.00  0.00     0.168 C 
HETATM   31  C   UNK N   1      46.504  37.952  51.525  0.00  0.00     0.031 C 
ENDBRANCH  25  26
ENDBRANCH  24  25
ENDBRANCH  22  24
ENDBRANCH   4  18
BRANCH   1  32
HETATM   32  C   UNK N   1      36.776  37.652  52.824  0.00  0.00     0.272 C 
HETATM   33  O   UNK N   1      35.782  38.301  52.531  0.00  0.00    -0.266 OA
HETATM   34  N   UNK N   1      36.629  36.332  53.184  0.00  0.00    -0.343 N 
HETATM   35  C   UNK N   1      35.297  35.810  53.465  0.00  0.00     0.152 C 
HETATM   36  C   UNK N   1      37.740  35.400  53.332  0.00  0.00     0.152 C 
HETATM   37  C   UNK N   1      35.389  34.377  54.030  0.00  0.00     0.187 C 
HETATM   38  O   UNK N   1      36.334  34.310  55.091  0.00  0.00    -0.388 OA
HETATM   39  C   UNK N   1      37.646  34.759  54.724  0.00  0.00     0.187 C 
ENDBRANCH   1  32
TORSDOF 5
ENDMDL
MODEL 4
REMARK VINA RESULT:      -8.0      2.608      7.084
REMARK  5 active torsions:
REMARK  status: ('A' for Active; 'I' for Inactive)
REMARK    1  A    between atoms: C_2  and  C_3 
REMARK       I    between atoms: C_2  and  N_34 
REMARK    2  A    between atoms: N_6  and  C_7 
REMARK    3  A    between atoms: N_11  and  C_12 
REMARK    4  A    between atoms: C_12  and  C_13 
REMARK    5  A    between atoms: C_13  and  C_14 
ROOT
HETATM    1  C   UNK N   1      41.029  33.932  46.002  0.00  0.00     0.126 A 
HETATM    2  N   UNK N   1      39.857  33.514  46.505  0.00  0.00    -0.292 N 
ATOM      3  HN  UNK N   1      39.688  33.293  47.486  1.00  0.00     0.187 HD
HETATM    4  N   UNK N   1      38.956  33.430  45.540  0.00  0.00    -0.284 N 
HETATM    5  C   UNK N   1      39.541  33.804  44.352  0.00  0.00     0.072 A 
HETATM    6  C   UNK N   1      40.881  34.123  44.637  0.00  0.00     0.019 A 
HETATM    7  C   UNK N   1      41.933  34.570  43.659  0.00  0.00     0.189 C 
HETATM    8  S   UNK N   1      41.595  33.723  42.126  0.00  0.00     0.183 S 
HETATM    9  O   UNK N   1      42.146  32.290  42.154  0.00  0.00    -0.222 OA
HETATM   10  O   UNK N   1      42.362  34.371  40.963  0.00  0.00    -0.222 OA
HETATM   11  C   UNK N   1      39.845  33.708  41.821  0.00  0.00     0.110 A 
HETATM   12  C   UNK N   1      39.353  33.630  40.507  0.00  0.00     0.138 A 
HETATM   13  F   UNK N   1      40.203  33.555  39.453  0.00  0.00    -0.204 F 
HETATM   14  C   UNK N   1      37.980  33.622  40.277  0.00  0.00     0.044 A 
HETATM   15  C   UNK N   1      37.098  33.695  41.348  0.00  0.00     0.004 A 
HETATM   16  C   UNK N   1      37.581  33.765  42.657  0.00  0.00     0.015 A 
HETATM   17  C   UNK N   1      38.962  33.769  42.933  0.00  0.00     0.018 A 
ENDROOT
BRANCH   4  18
HETATM   18  C   UNK N   1      37.632  32.872  45.868  0.00  0.00     0.126 C 
HETATM   19  C   UNK N   1      37.155  33.211  47.300  0.00  0.00     0.030 C 
HETATM   20  C   UNK N   1      36.198  32.141  47.843  0.00  0.00     0.022 C 
HETATM   21  C   UNK N   1      35.266  31.641  46.740  0.00  0.00     0.117 C 
HETATM   22  N   UNK N   1      36.021  30.978  45.639  0.00  0.00    -0.410 N 
HETATM   23  C   UNK N   1      37.424  31.424  45.401  0.00  0.00     0.144 C 
BRANCH  22  24
HETATM   24  C   UNK N   1      35.878  29.508  45.581  0.00  0.00     0.117 C 
BRANCH  24  25
HETATM   25  C   UNK N   1      37.194  28.780  45.215  0.00  0.00     0.024 C 
BRANCH  25  26
HETATM   26  C   UNK N   1      37.629  27.782  46.301  0.00  0.00    -0.009 C 
HETATM   27  C   UNK N   1      37.868  26.381  45.730  0.00  0.00     0.031 C 
HETATM   28  C   UNK N   1      38.445  25.514  46.886  0.00  0.00     0.168 C 
HETATM   29  O   UNK N   1      37.844  25.721  48.170  0.00  0.00    -0.391 OA
HETATM   30  C   UNK N   1      36.546  26.258  48.057  0.00  0.00     0.168 C 
HETATM   31  C   UNK N   1      36.580  27.673  47.443  0.00  0.00     0.031 C 
ENDBRANCH  25  26
ENDBRANCH  24  25
ENDBRANCH  22  24
ENDBRANCH   4  18
BRANCH   1  32
HETATM   32  C   UNK N   1      42.277  33.984  46.817  0.00  0.00     0.272 C 
HETATM   33  O   UNK N   1      42.376  34.869  47.655  0.00  0.00    -0.266 OA
HETATM   34  N   UNK N   1      43.353  33.156  46.591  0.00  0.00    -0.343 N 
HETATM   35  C   UNK N   1      44.655  33.505  47.146  0.00  0.00     0.152 C 
HETATM   36  C   UNK N   1      43.288  31.937  45.795  0.00  0.00     0.152 C 
HETATM   37  C   UNK N   1      45.742  32.549  46.612  0.00  0.00     0.187 C 
HETATM   38  O   UNK N   1      45.665  32.436  45.196  0.00  0.00    -0.388 OA
HETATM   39  C   UNK N   1      44.382  32.008  44.720  0.00  0.00     0.187 C 
ENDBRANCH   1  32
TORSDOF 5
ENDMDL
MODEL 5
REMARK VINA RESULT:      -8.0      6.700     11.200
REMARK  5 active torsions:
REMARK  status: ('A' for Active; 'I' for Inactive)
REMARK    1  A    between atoms: C_2  and  C_3 
REMARK       I    between atoms: C_2  and  N_34 
REMARK    2  A    between atoms: N_6  and  C_7 
REMARK    3  A    between atoms: N_11  and  C_12 
REMARK    4  A    between atoms: C_12  and  C_13 
REMARK    5  A    between atoms: C_13  and  C_14 
ROOT
HETATM    1  C   UNK N   1      42.370  39.216  53.677  0.00  0.00     0.126 A 
HETATM    2  N   UNK N   1      41.683  38.537  52.747  0.00  0.00    -0.292 N 
ATOM      3  HN  UNK N   1      40.693  38.300  52.808  1.00  0.00     0.187 HD
HETATM    4  N   UNK N   1      42.479  38.222  51.738  0.00  0.00    -0.284 N 
HETATM    5  C   UNK N   1      43.741  38.704  52.001  0.00  0.00     0.072 A 
HETATM    6  C   UNK N   1      43.684  39.341  53.253  0.00  0.00     0.019 A 
HETATM    7  C   UNK N   1      44.818  40.011  53.981  0.00  0.00     0.189 C 
HETATM    8  S   UNK N   1      46.290  39.079  53.595  0.00  0.00     0.183 S 
HETATM    9  O   UNK N   1      46.393  37.822  54.470  0.00  0.00    -0.222 OA
HETATM   10  O   UNK N   1      47.551  39.872  53.970  0.00  0.00    -0.222 OA
HETATM   11  C   UNK N   1      46.288  38.638  51.874  0.00  0.00     0.110 A 
HETATM   12  C   UNK N   1      47.498  38.420  51.195  0.00  0.00     0.138 A 
HETATM   13  F   UNK N   1      48.685  38.533  51.842  0.00  0.00    -0.204 F 
HETATM   14  C   UNK N   1      47.487  38.078  49.846  0.00  0.00     0.044 A 
HETATM   15  C   UNK N   1      46.278  37.956  49.172  0.00  0.00     0.004 A 
HETATM   16  C   UNK N   1      45.072  38.164  49.843  0.00  0.00     0.015 A 
HETATM   17  C   UNK N   1      45.039  38.505  51.210  0.00  0.00     0.018 A 
ENDROOT
BRANCH   4  18
HETATM   18  C   UNK N   1      41.940  37.367  50.665  0.00  0.00     0.126 C 
HETATM   19  C   UNK N   1      40.402  37.216  50.707  0.00  0.00     0.030 C 
HETATM   20  C   UNK N   1      39.949  35.885  50.090  0.00  0.00     0.022 C 
HETATM   21  C   UNK N   1      40.796  35.543  48.866  0.00  0.00     0.117 C 
HETATM   22  N   UNK N   1      42.230  35.348  49.225  0.00  0.00    -0.410 N 
HETATM   23  C   UNK N   1      42.749  36.086  50.412  0.00  0.00     0.144 C 
BRANCH  22  24
HETATM   24  C   UNK N   1      42.700  33.948  49.180  0.00  0.00     0.117 C 
BRANCH  24  25
HETATM   25  C   UNK N   1      42.380  33.239  47.842  0.00  0.00     0.024 C 
BRANCH  25  26
HETATM   26  C   UNK N   1      43.552  33.309  46.850  0.00  0.00    -0.009 C 
HETATM   27  C   UNK N   1      43.697  32.017  46.041  0.00  0.00     0.031 C 
HETATM   28  C   UNK N   1      44.806  32.270  44.980  0.00  0.00     0.168 C 
HETATM   29  O   UNK N   1      45.942  33.011  45.441  0.00  0.00    -0.391 OA
HETATM   30  C   UNK N   1      46.088  32.925  46.840  0.00  0.00     0.168 C 
HETATM   31  C   UNK N   1      44.903  33.593  47.566  0.00  0.00     0.031 C 
ENDBRANCH  25  26
ENDBRANCH  24  25
ENDBRANCH  22  24
ENDBRANCH   4  18
BRANCH   1  32
HETATM   32  C   UNK N   1      41.782  39.582  54.999  0.00  0.00     0.272 C 
HETATM   33  O   UNK N   1      42.457  39.386  55.999  0.00  0.00    -0.266 OA
HETATM   34  N   UNK N   1      40.486  40.020  55.144  0.00  0.00    -0.343 N 
HETATM   35  C   UNK N   1      39.862  39.990  56.462  0.00  0.00     0.152 C 
HETATM   36  C   UNK N   1      39.661  40.502  54.043  0.00  0.00     0.152 C 
HETATM   37  C   UNK N   1      38.363  40.341  56.357  0.00  0.00     0.187 C 
HETATM   38  O   UNK N   1      37.734  39.572  55.339  0.00  0.00    -0.388 OA
HETATM   39  C   UNK N   1      38.344  39.712  54.049  0.00  0.00     0.187 C 
ENDBRANCH   1  32
TORSDOF 5
ENDMDL
MODEL 6
REMARK VINA RESULT:      -7.7      6.199     10.400
REMARK  5 active torsions:
REMARK  status: ('A' for Active; 'I' for Inactive)
REMARK    1  A    between atoms: C_2  and  C_3 
REMARK       I    between atoms: C_2  and  N_34 
REMARK    2  A    between atoms: N_6  and  C_7 
REMARK    3  A    between atoms: N_11  and  C_12 
REMARK    4  A    between atoms: C_12  and  C_13 
REMARK    5  A    between atoms: C_13  and  C_14 
ROOT
HETATM    1  C   UNK N   1      41.956  38.287  49.851  0.00  0.00     0.126 A 
HETATM    2  N   UNK N   1      42.809  38.764  50.769  0.00  0.00    -0.292 N 
ATOM      3  HN  UNK N   1      43.815  38.864  50.637  1.00  0.00     0.187 HD
HETATM    4  N   UNK N   1      42.152  39.086  51.872  0.00  0.00    -0.284 N 
HETATM    5  C   UNK N   1      40.815  38.815  51.687  0.00  0.00     0.072 A 
HETATM    6  C   UNK N   1      40.677  38.293  50.389  0.00  0.00     0.019 A 
HETATM    7  C   UNK N   1      39.407  37.829  49.728  0.00  0.00     0.189 C 
HETATM    8  S   UNK N   1      38.396  37.120  51.015  0.00  0.00     0.183 S 
HETATM    9  O   UNK N   1      38.829  35.680  51.326  0.00  0.00    -0.222 OA
HETATM   10  O   UNK N   1      36.945  36.955  50.539  0.00  0.00    -0.222 OA
HETATM   11  C   UNK N   1      38.490  38.125  52.477  0.00  0.00     0.110 A 
HETATM   12  C   UNK N   1      37.429  38.141  53.397  0.00  0.00     0.138 A 
HETATM   13  F   UNK N   1      36.322  37.384  53.191  0.00  0.00    -0.204 F 
HETATM   14  C   UNK N   1      37.509  38.934  54.539  0.00  0.00     0.044 A 
HETATM   15  C   UNK N   1      38.639  39.711  54.763  0.00  0.00     0.004 A 
HETATM   16  C   UNK N   1      39.700  39.693  53.856  0.00  0.00     0.015 A 
HETATM   17  C   UNK N   1      39.661  38.900  52.692  0.00  0.00     0.018 A 
ENDROOT
BRANCH   4  18
HETATM   18  C   UNK N   1      42.930  39.518  53.047  0.00  0.00     0.126 C 
HETATM   19  C   UNK N   1      42.652  40.979  53.470  0.00  0.00     0.030 C 
HETATM   20  C   UNK N   1      43.863  41.601  54.178  0.00  0.00     0.022 C 
HETATM   21  C   UNK N   1      44.542  40.576  55.084  0.00  0.00     0.117 C 
HETATM   22  N   UNK N   1      45.084  39.425  54.306  0.00  0.00    -0.410 N 
HETATM   23  C   UNK N   1      44.401  39.078  53.027  0.00  0.00     0.144 C 
BRANCH  22  24
HETATM   24  C   UNK N   1      46.556  39.388  54.189  0.00  0.00     0.117 C 
BRANCH  24  25
HETATM   25  C   UNK N   1      47.069  38.234  53.294  0.00  0.00     0.024 C 
BRANCH  25  26
HETATM   26  C   UNK N   1      47.053  38.602  51.801  0.00  0.00    -0.009 C 
HETATM   27  C   UNK N   1      46.458  37.484  50.941  0.00  0.00     0.031 C 
HETATM   28  C   UNK N   1      46.357  38.035  49.490  0.00  0.00     0.168 C 
HETATM   29  O   UNK N   1      47.471  38.823  49.051  0.00  0.00    -0.391 OA
HETATM   30  C   UNK N   1      48.637  38.530  49.786  0.00  0.00     0.168 C 
HETATM   31  C   UNK N   1      48.477  38.926  51.268  0.00  0.00     0.031 C 
ENDBRANCH  25  26
ENDBRANCH  24  25
ENDBRANCH  22  24
ENDBRANCH   4  18
BRANCH   1  32
HETATM   32  C   UNK N   1      42.416  37.704  48.557  0.00  0.00     0.272 C 
HETATM   33  O   UNK N   1      42.540  38.458  47.603  0.00  0.00    -0.266 OA
HETATM   34  N   UNK N   1      42.596  36.353  48.368  0.00  0.00    -0.343 N 
HETATM   35  C   UNK N   1      42.667  35.822  47.012  0.00  0.00     0.152 C 
HETATM   36  C   UNK N   1      42.699  35.386  49.454  0.00  0.00     0.152 C 
HETATM   37  C   UNK N   1      42.677  34.279  47.038  0.00  0.00     0.187 C 
HETATM   38  O   UNK N   1      41.631  33.779  47.861  0.00  0.00    -0.388 OA
HETATM   39  C   UNK N   1      41.668  34.275  49.206  0.00  0.00     0.187 C 
ENDBRANCH   1  32
TORSDOF 5
ENDMDL
MODEL 7
REMARK VINA RESULT:      -7.7      8.839     13.804
REMARK  5 active torsions:
REMARK  status: ('A' for Active; 'I' for Inactive)
REMARK    1  A    between atoms: C_2  and  C_3 
REMARK       I    between atoms: C_2  and  N_34 
REMARK    2  A    between atoms: N_6  and  C_7 
REMARK    3  A    between atoms: N_11  and  C_12 
REMARK    4  A    between atoms: C_12  and  C_13 
REMARK    5  A    between atoms: C_13  and  C_14 
ROOT
HETATM    1  C   UNK N   1      41.582  38.862  52.008  0.00  0.00     0.126 A 
HETATM    2  N   UNK N   1      40.269  38.908  52.279  0.00  0.00    -0.292 N 
ATOM      3  HN  UNK N   1      39.526  38.788  51.591  1.00  0.00     0.187 HD
HETATM    4  N   UNK N   1      40.082  39.130  53.569  0.00  0.00    -0.284 N 
HETATM    5  C   UNK N   1      41.308  39.238  54.184  0.00  0.00     0.072 A 
HETATM    6  C   UNK N   1      42.284  39.073  53.186  0.00  0.00     0.019 A 
HETATM    7  C   UNK N   1      43.778  39.125  53.360  0.00  0.00     0.189 C 
HETATM    8  S   UNK N   1      44.098  40.330  54.636  0.00  0.00     0.183 S 
HETATM    9  O   UNK N   1      44.056  41.757  54.070  0.00  0.00    -0.222 OA
HETATM   10  O   UNK N   1      45.537  40.202  55.158  0.00  0.00    -0.222 OA
HETATM   11  C   UNK N   1      42.913  40.147  55.947  0.00  0.00     0.110 A 
HETATM   12  C   UNK N   1      43.236  40.539  57.256  0.00  0.00     0.138 A 
HETATM   13  F   UNK N   1      44.451  41.070  57.540  0.00  0.00    -0.204 F 
HETATM   14  C   UNK N   1      42.302  40.390  58.278  0.00  0.00     0.044 A 
HETATM   15  C   UNK N   1      41.053  39.850  58.001  0.00  0.00     0.004 A 
HETATM   16  C   UNK N   1      40.723  39.466  56.699  0.00  0.00     0.015 A 
HETATM   17  C   UNK N   1      41.636  39.606  55.636  0.00  0.00     0.018 A 
ENDROOT
BRANCH   4  18
HETATM   18  C   UNK N   1      38.703  39.336  54.049  0.00  0.00     0.126 C 
HETATM   19  C   UNK N   1      37.637  38.610  53.197  0.00  0.00     0.030 C 
HETATM   20  C   UNK N   1      36.282  39.330  53.256  0.00  0.00     0.022 C 
HETATM   21  C   UNK N   1      36.017  39.864  54.662  0.00  0.00     0.117 C 
HETATM   22  N   UNK N   1      37.028  40.884  55.064  0.00  0.00    -0.410 N 
HETATM   23  C   UNK N   1      38.386  40.782  54.459  0.00  0.00     0.144 C 
BRANCH  22  24
HETATM   24  C   UNK N   1      36.530  42.275  55.104  0.00  0.00     0.117 C 
BRANCH  24  25
HETATM   25  C   UNK N   1      35.643  42.570  56.338  0.00  0.00     0.024 C 
BRANCH  25  26
HETATM   26  C   UNK N   1      36.166  43.759  57.161  0.00  0.00    -0.009 C 
HETATM   27  C   UNK N   1      35.099  44.314  58.109  0.00  0.00     0.031 C 
HETATM   28  C   UNK N   1      35.791  45.398  58.984  0.00  0.00     0.168 C 
HETATM   29  O   UNK N   1      36.714  46.249  58.294  0.00  0.00    -0.391 OA
HETATM   30  C   UNK N   1      36.447  46.295  56.910  0.00  0.00     0.168 C 
HETATM   31  C   UNK N   1      36.667  44.918  56.254  0.00  0.00     0.031 C 
ENDBRANCH  25  26
ENDBRANCH  24  25
ENDBRANCH  22  24
ENDBRANCH   4  18
BRANCH   1  32
HETATM   32  C   UNK N   1      42.110  38.771  50.616  0.00  0.00     0.272 C 
HETATM   33  O   UNK N   1      41.941  39.730  49.877  0.00  0.00    -0.266 OA
HETATM   34  N   UNK N   1      42.673  37.624  50.103  0.00  0.00    -0.343 N 
HETATM   35  C   UNK N   1      42.810  37.477  48.659  0.00  0.00     0.152 C 
HETATM   36  C   UNK N   1      43.131  36.507  50.919  0.00  0.00     0.152 C 
HETATM   37  C   UNK N   1      43.282  36.051  48.306  0.00  0.00     0.187 C 
HETATM   38  O   UNK N   1      42.489  35.076  48.971  0.00  0.00    -0.388 OA
HETATM   39  C   UNK N   1      42.464  35.226  50.396  0.00  0.00     0.187 C 
ENDBRANCH   1  32
TORSDOF 5
ENDMDL
MODEL 8
REMARK VINA RESULT:      -7.6      5.202      9.384
REMARK  5 active torsions:
REMARK  status: ('A' for Active; 'I' for Inactive)
REMARK    1  A    between atoms: C_2  and  C_3 
REMARK       I    between atoms: C_2  and  N_34 
REMARK    2  A    between atoms: N_6  and  C_7 
REMARK    3  A    between atoms: N_11  and  C_12 
REMARK    4  A    between atoms: C_12  and  C_13 
REMARK    5  A    between atoms: C_13  and  C_14 
ROOT
HETATM    1  C   UNK N   1      40.335  34.627  48.412  0.00  0.00     0.126 A 
HETATM    2  N   UNK N   1      39.182  34.033  48.753  0.00  0.00    -0.292 N 
ATOM      3  HN  UNK N   1      38.762  33.245  48.261  1.00  0.00     0.187 HD
HETATM    4  N   UNK N   1      38.671  34.620  49.823  0.00  0.00    -0.284 N 
HETATM    5  C   UNK N   1      39.507  35.641  50.212  0.00  0.00     0.072 A 
HETATM    6  C   UNK N   1      40.581  35.660  49.305  0.00  0.00     0.019 A 
HETATM    7  C   UNK N   1      41.748  36.610  49.301  0.00  0.00     0.189 C 
HETATM    8  S   UNK N   1      41.126  38.180  49.876  0.00  0.00     0.183 S 
HETATM    9  O   UNK N   1      40.425  38.944  48.744  0.00  0.00    -0.222 OA
HETATM   10  O   UNK N   1      42.281  39.114  50.268  0.00  0.00    -0.222 OA
HETATM   11  C   UNK N   1      40.011  37.923  51.235  0.00  0.00     0.110 A 
HETATM   12  C   UNK N   1      39.825  38.927  52.200  0.00  0.00     0.138 A 
HETATM   13  F   UNK N   1      40.484  40.108  52.107  0.00  0.00    -0.204 F 
HETATM   14  C   UNK N   1      38.951  38.716  53.263  0.00  0.00     0.044 A 
HETATM   15  C   UNK N   1      38.266  37.511  53.369  0.00  0.00     0.004 A 
HETATM   16  C   UNK N   1      38.441  36.513  52.408  0.00  0.00     0.015 A 
HETATM   17  C   UNK N   1      39.311  36.689  51.314  0.00  0.00     0.018 A 
ENDROOT
BRANCH   4  18
HETATM   18  C   UNK N   1      37.339  34.189  50.287  0.00  0.00     0.126 C 
HETATM   19  C   UNK N   1      36.274  35.310  50.236  0.00  0.00     0.030 C 
HETATM   20  C   UNK N   1      35.175  35.091  51.285  0.00  0.00     0.022 C 
HETATM   21  C   UNK N   1      34.832  33.607  51.405  0.00  0.00     0.117 C 
HETATM   22  N   UNK N   1      35.999  32.808  51.877  0.00  0.00    -0.410 N 
HETATM   23  C   UNK N   1      37.361  33.321  51.553  0.00  0.00     0.144 C 
BRANCH  22  24
HETATM   24  C   UNK N   1      35.897  32.316  53.267  0.00  0.00     0.117 C 
BRANCH  24  25
HETATM   25  C   UNK N   1      37.190  32.533  54.088  0.00  0.00     0.024 C 
BRANCH  25  26
HETATM   26  C   UNK N   1      36.978  33.497  55.267  0.00  0.00    -0.009 C 
HETATM   27  C   UNK N   1      36.182  34.739  54.856  0.00  0.00     0.031 C 
HETATM   28  C   UNK N   1      35.906  35.549  56.155  0.00  0.00     0.168 C 
HETATM   29  O   UNK N   1      36.995  35.615  57.083  0.00  0.00    -0.391 OA
HETATM   30  C   UNK N   1      38.234  35.395  56.449  0.00  0.00     0.168 C 
HETATM   31  C   UNK N   1      38.326  33.961  55.888  0.00  0.00     0.031 C 
ENDBRANCH  25  26
ENDBRANCH  24  25
ENDBRANCH  22  24
ENDBRANCH   4  18
BRANCH   1  32
HETATM   32  C   UNK N   1      41.073  34.285  47.162  0.00  0.00     0.272 C 
HETATM   33  O   UNK N   1      40.505  34.468  46.095  0.00  0.00    -0.266 OA
HETATM   34  N   UNK N   1      42.307  33.675  47.166  0.00  0.00    -0.343 N 
HETATM   35  C   UNK N   1      42.791  33.028  45.952  0.00  0.00     0.152 C 
HETATM   36  C   UNK N   1      43.177  33.606  48.333  0.00  0.00     0.152 C 
HETATM   37  C   UNK N   1      44.094  32.253  46.238  0.00  0.00     0.187 C 
HETATM   38  O   UNK N   1      43.949  31.424  47.384  0.00  0.00    -0.388 OA
HETATM   39  C   UNK N   1      43.553  32.135  48.564  0.00  0.00     0.187 C 
ENDBRANCH   1  32
TORSDOF 5
ENDMDL
MODEL 9
REMARK VINA RESULT:      -7.6      9.794     12.965
REMARK  5 active torsions:
REMARK  status: ('A' for Active; 'I' for Inactive)
REMARK    1  A    between atoms: C_2  and  C_3 
REMARK       I    between atoms: C_2  and  N_34 
REMARK    2  A    between atoms: N_6  and  C_7 
REMARK    3  A    between atoms: N_11  and  C_12 
REMARK    4  A    between atoms: C_12  and  C_13 
REMARK    5  A    between atoms: C_13  and  C_14 
ROOT
HETATM    1  C   UNK N   1      38.103  39.080  53.778  0.00  0.00     0.126 A 
HETATM    2  N   UNK N   1      38.362  39.649  54.964  0.00  0.00    -0.292 N 
ATOM      3  HN  UNK N   1      37.656  39.982  55.620  1.00  0.00     0.187 HD
HETATM    4  N   UNK N   1      39.669  39.715  55.157  0.00  0.00    -0.284 N 
HETATM    5  C   UNK N   1      40.308  39.172  54.065  0.00  0.00     0.072 A 
HETATM    6  C   UNK N   1      39.307  38.765  53.165  0.00  0.00     0.019 A 
HETATM    7  C   UNK N   1      39.505  38.130  51.816  0.00  0.00     0.189 C 
HETATM    8  S   UNK N   1      40.989  38.845  51.132  0.00  0.00     0.183 S 
HETATM    9  O   UNK N   1      40.703  40.219  50.508  0.00  0.00    -0.222 OA
HETATM   10  O   UNK N   1      41.495  38.017  49.941  0.00  0.00    -0.222 OA
HETATM   11  C   UNK N   1      42.228  38.985  52.397  0.00  0.00     0.110 A 
HETATM   12  C   UNK N   1      43.592  38.973  52.060  0.00  0.00     0.138 A 
HETATM   13  F   UNK N   1      43.985  38.865  50.767  0.00  0.00    -0.204 F 
HETATM   14  C   UNK N   1      44.556  39.080  53.059  0.00  0.00     0.044 A 
HETATM   15  C   UNK N   1      44.167  39.194  54.388  0.00  0.00     0.004 A 
HETATM   16  C   UNK N   1      42.813  39.214  54.728  0.00  0.00     0.015 A 
HETATM   17  C   UNK N   1      41.806  39.115  53.748  0.00  0.00     0.018 A 
ENDROOT
BRANCH   4  18
HETATM   18  C   UNK N   1      40.163  40.419  56.354  0.00  0.00     0.126 C 
HETATM   19  C   UNK N   1      40.689  39.472  57.457  0.00  0.00     0.030 C 
HETATM   20  C   UNK N   1      40.553  40.099  58.851  0.00  0.00     0.022 C 
HETATM   21  C   UNK N   1      40.869  41.593  58.803  0.00  0.00     0.117 C 
HETATM   22  N   UNK N   1      39.906  42.332  57.938  0.00  0.00    -0.410 N 
HETATM   23  C   UNK N   1      39.273  41.582  56.816  0.00  0.00     0.144 C 
BRANCH  22  24
HETATM   24  C   UNK N   1      38.941  43.184  58.663  0.00  0.00     0.117 C 
BRANCH  24  25
HETATM   25  C   UNK N   1      37.484  42.667  58.577  0.00  0.00     0.024 C 
BRANCH  25  26
HETATM   26  C   UNK N   1      36.505  43.756  58.110  0.00  0.00    -0.009 C 
HETATM   27  C   UNK N   1      35.840  43.397  56.779  0.00  0.00     0.031 C 
HETATM   28  C   UNK N   1      34.772  44.492  56.496  0.00  0.00     0.168 C 
HETATM   29  O   UNK N   1      35.166  45.832  56.813  0.00  0.00    -0.391 OA
HETATM   30  C   UNK N   1      36.569  45.974  56.824  0.00  0.00     0.168 C 
HETATM   31  C   UNK N   1      37.205  45.136  57.951  0.00  0.00     0.031 C 
ENDBRANCH  25  26
ENDBRANCH  24  25
ENDBRANCH  22  24
ENDBRANCH   4  18
BRANCH   1  32
HETATM   32  C   UNK N   1      36.725  38.999  53.213  0.00  0.00     0.272 C 
HETATM   33  O   UNK N   1      36.388  39.850  52.402  0.00  0.00    -0.266 OA
HETATM   34  N   UNK N   1      35.792  38.084  53.645  0.00  0.00    -0.343 N 
HETATM   35  C   UNK N   1      34.382  38.300  53.343  0.00  0.00     0.152 C 
HETATM   36  C   UNK N   1      36.117  36.896  54.424  0.00  0.00     0.152 C 
HETATM   37  C   UNK N   1      33.508  37.264  54.081  0.00  0.00     0.187 C 
HETATM   38  O   UNK N   1      33.859  37.195  55.457  0.00  0.00    -0.388 OA
HETATM   39  C   UNK N   1      35.242  36.896  55.686  0.00  0.00     0.187 C 
ENDBRANCH   1  32
TORSDOF 5
ENDMDL
