MODEL 1
REMARK VINA RESULT:      -8.0      0.000      0.000
REMARK  5 active torsions:
REMARK  status: ('A' for Active; 'I' for Inactive)
REMARK    1  A    between atoms: C_2  and  C_3 
REMARK       I    between atoms: C_2  and  N_33 
REMARK    2  A    between atoms: N_6  and  C_7 
REMARK    3  A    between atoms: N_10  and  C_11 
REMARK    4  A    between atoms: C_11  and  C_12 
REMARK    5  A    between atoms: C_12  and  N_13 
ROOT
HETATM    1  C   UNK N   1      38.329  38.127  52.238  0.00  0.00     0.126 A 
HETATM    2  N   UNK N   1      39.252  37.889  51.286  0.00  0.00    -0.292 N 
ATOM      3  HN  UNK N   1      39.058  37.501  50.363  1.00  0.00     0.187 HD
HETATM    4  N   UNK N   1      40.455  38.236  51.733  0.00  0.00    -0.284 N 
HETATM    5  C   UNK N   1      40.327  38.726  53.013  0.00  0.00     0.072 A 
HETATM    6  C   UNK N   1      38.962  38.685  53.338  0.00  0.00     0.019 A 
HETATM    7  C   UNK N   1      38.314  39.180  54.607  0.00  0.00     0.189 C 
HETATM    8  S   UNK N   1      39.289  40.582  55.149  0.00  0.00     0.180 S 
HETATM    9  O   UNK N   1      38.951  40.984  56.593  0.00  0.00    -0.222 OA
HETATM   10  O   UNK N   1      38.936  41.842  54.343  0.00  0.00    -0.222 OA
HETATM   11  C   UNK N   1      41.006  40.209  54.965  0.00  0.00     0.072 A 
HETATM   12  C   UNK N   1      41.951  40.778  55.827  0.00  0.00     0.024 A 
HETATM   13  C   UNK N   1      43.296  40.443  55.703  0.00  0.00     0.002 A 
HETATM   14  C   UNK N   1      43.695  39.534  54.729  0.00  0.00     0.001 A 
HETATM   15  C   UNK N   1      42.753  38.974  53.863  0.00  0.00     0.015 A 
HETATM   16  C   UNK N   1      41.390  39.305  53.944  0.00  0.00     0.014 A 
ENDROOT
BRANCH   4  17
HETATM   17  C   UNK N   1      41.621  38.144  50.827  0.00  0.00     0.138 C 
HETATM   18  C   UNK N   1      41.926  36.760  50.255  0.00  0.00     0.059 C 
HETATM   19  C   UNK N   1      42.320  37.027  48.797  0.00  0.00     0.274 C 
HETATM   20  N   UNK N   1      42.444  38.482  48.611  0.00  0.00     0.092 N 
HETATM   21  C   UNK N   1      41.680  39.144  49.681  0.00  0.00     0.299 C 
BRANCH  20  22
HETATM   22  C   UNK N   1      43.808  38.976  48.352  0.00  0.00     0.291 C 
BRANCH  22  23
HETATM   23  C   UNK N   1      44.931  37.983  48.727  0.00  0.00     0.147 C 
BRANCH  23  24
HETATM   24  N   UNK N   1      45.791  38.476  49.823  0.00  0.00    -0.411 N 
HETATM   25  C   UNK N   1      47.251  38.461  49.526  0.00  0.00     0.119 C 
HETATM   26  C   UNK N   1      47.992  37.487  50.443  0.00  0.00     0.056 C 
HETATM   27  C   UNK N   1      47.804  37.872  51.924  0.00  0.00     0.173 C 
HETATM   28  F   UNK N   1      48.772  38.778  52.322  0.00  0.00    -0.249 F 
HETATM   29  C   UNK N   1      46.418  38.494  52.202  0.00  0.00     0.056 C 
HETATM   30  C   UNK N   1      45.391  38.012  51.180  0.00  0.00     0.119 C 
ENDBRANCH  23  24
ENDBRANCH  22  23
ENDBRANCH  20  22
ENDBRANCH   4  17
BRANCH   1  31
HETATM   31  C   UNK N   1      36.869  37.777  52.139  0.00  0.00     0.272 C 
HETATM   32  O   UNK N   1      36.105  38.651  51.753  0.00  0.00    -0.266 OA
HETATM   33  N   UNK N   1      36.345  36.547  52.481  0.00  0.00    -0.343 N 
HETATM   34  C   UNK N   1      37.207  35.461  52.955  0.00  0.00     0.152 C 
HETATM   35  C   UNK N   1      34.880  36.406  52.508  0.00  0.00     0.152 C 
HETATM   36  C   UNK N   1      36.463  34.133  53.124  0.00  0.00     0.187 C 
HETATM   37  O   UNK N   1      35.209  34.346  53.735  0.00  0.00    -0.388 OA
HETATM   38  C   UNK N   1      34.395  34.979  52.772  0.00  0.00     0.187 C 
ENDBRANCH   1  31
TORSDOF 5
ENDMDL
MODEL 2
REMARK VINA RESULT:      -8.0      5.185      6.688
REMARK  5 active torsions:
REMARK  status: ('A' for Active; 'I' for Inactive)
REMARK    1  A    between atoms: C_2  and  C_3 
REMARK       I    between atoms: C_2  and  N_33 
REMARK    2  A    between atoms: N_6  and  C_7 
REMARK    3  A    between atoms: N_10  and  C_11 
REMARK    4  A    between atoms: C_11  and  C_12 
REMARK    5  A    between atoms: C_12  and  N_13 
ROOT
HETATM    1  C   UNK N   1      38.867  35.157  49.513  0.00  0.00     0.126 A 
HETATM    2  N   UNK N   1      39.747  34.475  48.755  0.00  0.00    -0.292 N 
ATOM      3  HN  UNK N   1      39.507  33.729  48.101  1.00  0.00     0.187 HD
HETATM    4  N   UNK N   1      40.977  34.921  48.988  0.00  0.00    -0.284 N 
HETATM    5  C   UNK N   1      40.911  35.933  49.920  0.00  0.00     0.072 A 
HETATM    6  C   UNK N   1      39.558  36.110  50.245  0.00  0.00     0.019 A 
HETATM    7  C   UNK N   1      38.973  37.148  51.170  0.00  0.00     0.189 C 
HETATM    8  S   UNK N   1      40.022  38.593  51.024  0.00  0.00     0.180 S 
HETATM    9  O   UNK N   1      39.748  39.608  52.144  0.00  0.00    -0.222 OA
HETATM   10  O   UNK N   1      39.696  39.383  49.748  0.00  0.00    -0.222 OA
HETATM   11  C   UNK N   1      41.715  38.089  51.006  0.00  0.00     0.072 A 
HETATM   12  C   UNK N   1      42.711  38.930  51.517  0.00  0.00     0.024 A 
HETATM   13  C   UNK N   1      44.036  38.506  51.539  0.00  0.00     0.002 A 
HETATM   14  C   UNK N   1      44.364  37.241  51.064  0.00  0.00     0.001 A 
HETATM   15  C   UNK N   1      43.372  36.406  50.546  0.00  0.00     0.015 A 
HETATM   16  C   UNK N   1      42.028  36.808  50.487  0.00  0.00     0.014 A 
ENDROOT
BRANCH   4  17
HETATM   17  C   UNK N   1      42.109  34.378  48.205  0.00  0.00     0.138 C 
HETATM   18  C   UNK N   1      43.056  33.437  48.947  0.00  0.00     0.059 C 
HETATM   19  C   UNK N   1      43.373  32.334  47.931  0.00  0.00     0.274 C 
HETATM   20  N   UNK N   1      42.821  32.733  46.626  0.00  0.00     0.092 N 
HETATM   21  C   UNK N   1      41.770  33.737  46.866  0.00  0.00     0.299 C 
BRANCH  20  22
HETATM   22  C   UNK N   1      43.814  33.035  45.580  0.00  0.00     0.291 C 
BRANCH  22  23
HETATM   23  C   UNK N   1      43.683  32.173  44.304  0.00  0.00     0.147 C 
BRANCH  23  24
HETATM   24  N   UNK N   1      42.368  32.319  43.646  0.00  0.00    -0.411 N 
HETATM   25  C   UNK N   1      42.009  31.210  42.717  0.00  0.00     0.119 C 
HETATM   26  C   UNK N   1      41.902  31.710  41.275  0.00  0.00     0.056 C 
HETATM   27  C   UNK N   1      40.828  32.811  41.152  0.00  0.00     0.173 C 
HETATM   28  F   UNK N   1      39.582  32.257  40.914  0.00  0.00    -0.249 F 
HETATM   29  C   UNK N   1      40.733  33.688  42.419  0.00  0.00     0.056 C 
HETATM   30  C   UNK N   1      42.059  33.697  43.176  0.00  0.00     0.119 C 
ENDBRANCH  23  24
ENDBRANCH  22  23
ENDBRANCH  20  22
ENDBRANCH   4  17
BRANCH   1  31
HETATM   31  C   UNK N   1      37.390  34.875  49.595  0.00  0.00     0.272 C 
HETATM   32  O   UNK N   1      36.685  35.299  48.689  0.00  0.00    -0.266 OA
HETATM   33  N   UNK N   1      36.791  34.197  50.636  0.00  0.00    -0.343 N 
HETATM   34  C   UNK N   1      37.580  33.670  51.753  0.00  0.00     0.152 C 
HETATM   35  C   UNK N   1      35.320  34.156  50.674  0.00  0.00     0.152 C 
HETATM   36  C   UNK N   1      36.759  32.811  52.718  0.00  0.00     0.187 C 
HETATM   37  O   UNK N   1      35.509  33.415  52.971  0.00  0.00    -0.388 OA
HETATM   38  C   UNK N   1      34.749  33.277  51.790  0.00  0.00     0.187 C 
ENDBRANCH   1  31
TORSDOF 5
ENDMDL
MODEL 3
REMARK VINA RESULT:      -7.8      4.708      8.289
REMARK  5 active torsions:
REMARK  status: ('A' for Active; 'I' for Inactive)
REMARK    1  A    between atoms: C_2  and  C_3 
REMARK       I    between atoms: C_2  and  N_33 
REMARK    2  A    between atoms: N_6  and  C_7 
REMARK    3  A    between atoms: N_10  and  C_11 
REMARK    4  A    between atoms: C_11  and  C_12 
REMARK    5  A    between atoms: C_12  and  N_13 
ROOT
HETATM    1  C   UNK N   1      40.557  34.827  48.313  0.00  0.00     0.126 A 
HETATM    2  N   UNK N   1      39.443  34.342  48.895  0.00  0.00    -0.292 N 
ATOM      3  HN  UNK N   1      38.949  33.497  48.608  1.00  0.00     0.187 HD
HETATM    4  N   UNK N   1      39.084  35.133  49.901  0.00  0.00    -0.284 N 
HETATM    5  C   UNK N   1      39.989  36.166  49.996  0.00  0.00     0.072 A 
HETATM    6  C   UNK N   1      40.954  35.965  48.997  0.00  0.00     0.019 A 
HETATM    7  C   UNK N   1      42.188  36.795  48.744  0.00  0.00     0.189 C 
HETATM    8  S   UNK N   1      42.716  37.402  50.345  0.00  0.00     0.180 S 
HETATM    9  O   UNK N   1      43.759  38.522  50.211  0.00  0.00    -0.222 OA
HETATM   10  O   UNK N   1      43.470  36.314  51.125  0.00  0.00    -0.222 OA
HETATM   11  C   UNK N   1      41.305  37.936  51.264  0.00  0.00     0.072 A 
HETATM   12  C   UNK N   1      41.419  38.971  52.199  0.00  0.00     0.024 A 
HETATM   13  C   UNK N   1      40.292  39.416  52.886  0.00  0.00     0.002 A 
HETATM   14  C   UNK N   1      39.055  38.835  52.631  0.00  0.00     0.001 A 
HETATM   15  C   UNK N   1      38.943  37.796  51.705  0.00  0.00     0.015 A 
HETATM   16  C   UNK N   1      40.061  37.307  51.009  0.00  0.00     0.014 A 
ENDROOT
BRANCH   4  17
HETATM   17  C   UNK N   1      37.930  34.755  50.747  0.00  0.00     0.138 C 
HETATM   18  C   UNK N   1      36.651  35.567  50.549  0.00  0.00     0.059 C 
HETATM   19  C   UNK N   1      35.525  34.530  50.623  0.00  0.00     0.274 C 
HETATM   20  N   UNK N   1      36.105  33.246  51.055  0.00  0.00     0.092 N 
HETATM   21  C   UNK N   1      37.548  33.282  50.768  0.00  0.00     0.299 C 
BRANCH  20  22
HETATM   22  C   UNK N   1      35.695  32.781  52.391  0.00  0.00     0.291 C 
BRANCH  22  23
HETATM   23  C   UNK N   1      36.867  32.431  53.335  0.00  0.00     0.147 C 
BRANCH  23  24
HETATM   24  N   UNK N   1      36.929  33.310  54.522  0.00  0.00    -0.411 N 
HETATM   25  C   UNK N   1      36.574  34.735  54.263  0.00  0.00     0.119 C 
HETATM   26  C   UNK N   1      37.773  35.655  54.498  0.00  0.00     0.056 C 
HETATM   27  C   UNK N   1      38.281  35.540  55.949  0.00  0.00     0.173 C 
HETATM   28  F   UNK N   1      37.608  36.422  56.776  0.00  0.00    -0.249 F 
HETATM   29  C   UNK N   1      38.112  34.116  56.524  0.00  0.00     0.056 C 
HETATM   30  C   UNK N   1      38.104  33.075  55.406  0.00  0.00     0.119 C 
ENDBRANCH  23  24
ENDBRANCH  22  23
ENDBRANCH  20  22
ENDBRANCH   4  17
BRANCH   1  31
HETATM   31  C   UNK N   1      41.213  34.257  47.084  0.00  0.00     0.272 C 
HETATM   32  O   UNK N   1      40.746  34.574  45.998  0.00  0.00    -0.266 OA
HETATM   33  N   UNK N   1      42.281  33.384  47.114  0.00  0.00    -0.343 N 
HETATM   34  C   UNK N   1      42.881  32.962  48.382  0.00  0.00     0.152 C 
HETATM   35  C   UNK N   1      42.700  32.766  45.846  0.00  0.00     0.152 C 
HETATM   36  C   UNK N   1      44.152  32.128  48.199  0.00  0.00     0.187 C 
HETATM   37  O   UNK N   1      43.977  31.186  47.162  0.00  0.00    -0.388 OA
HETATM   38  C   UNK N   1      43.968  31.915  45.954  0.00  0.00     0.187 C 
ENDBRANCH   1  31
TORSDOF 5
ENDMDL
MODEL 4
REMARK VINA RESULT:      -7.8      5.065      8.727
REMARK  5 active torsions:
REMARK  status: ('A' for Active; 'I' for Inactive)
REMARK    1  A    between atoms: C_2  and  C_3 
REMARK       I    between atoms: C_2  and  N_33 
REMARK    2  A    between atoms: N_6  and  C_7 
REMARK    3  A    between atoms: N_10  and  C_11 
REMARK    4  A    between atoms: C_11  and  C_12 
REMARK    5  A    between atoms: C_12  and  N_13 
ROOT
HETATM    1  C   UNK N   1      40.517  34.837  48.362  0.00  0.00     0.126 A 
HETATM    2  N   UNK N   1      39.411  34.362  48.968  0.00  0.00    -0.292 N 
ATOM      3  HN  UNK N   1      38.909  33.516  48.696  1.00  0.00     0.187 HD
HETATM    4  N   UNK N   1      39.073  35.162  49.973  0.00  0.00    -0.284 N 
HETATM    5  C   UNK N   1      39.984  36.193  50.043  0.00  0.00     0.072 A 
HETATM    6  C   UNK N   1      40.930  35.980  49.029  0.00  0.00     0.019 A 
HETATM    7  C   UNK N   1      42.162  36.803  48.747  0.00  0.00     0.189 C 
HETATM    8  S   UNK N   1      42.721  37.421  50.333  0.00  0.00     0.180 S 
HETATM    9  O   UNK N   1      43.765  38.536  50.171  0.00  0.00    -0.222 OA
HETATM   10  O   UNK N   1      43.485  36.337  51.108  0.00  0.00    -0.222 OA
HETATM   11  C   UNK N   1      41.329  37.968  51.273  0.00  0.00     0.072 A 
HETATM   12  C   UNK N   1      41.463  39.011  52.197  0.00  0.00     0.024 A 
HETATM   13  C   UNK N   1      40.351  39.465  52.901  0.00  0.00     0.002 A 
HETATM   14  C   UNK N   1      39.106  38.887  52.672  0.00  0.00     0.001 A 
HETATM   15  C   UNK N   1      38.975  37.841  51.757  0.00  0.00     0.015 A 
HETATM   16  C   UNK N   1      40.078  37.342  51.046  0.00  0.00     0.014 A 
ENDROOT
BRANCH   4  17
HETATM   17  C   UNK N   1      37.934  34.796  50.843  0.00  0.00     0.138 C 
HETATM   18  C   UNK N   1      36.627  35.548  50.599  0.00  0.00     0.059 C 
HETATM   19  C   UNK N   1      35.538  34.478  50.738  0.00  0.00     0.274 C 
HETATM   20  N   UNK N   1      36.163  33.245  51.246  0.00  0.00     0.092 N 
HETATM   21  C   UNK N   1      37.605  33.314  50.954  0.00  0.00     0.299 C 
BRANCH  20  22
HETATM   22  C   UNK N   1      35.770  32.847  52.609  0.00  0.00     0.291 C 
BRANCH  22  23
HETATM   23  C   UNK N   1      36.897  32.960  53.660  0.00  0.00     0.147 C 
BRANCH  23  24
HETATM   24  N   UNK N   1      37.093  31.713  54.428  0.00  0.00    -0.411 N 
HETATM   25  C   UNK N   1      38.444  31.561  55.039  0.00  0.00     0.119 C 
HETATM   26  C   UNK N   1      39.194  30.374  54.433  0.00  0.00     0.056 C 
HETATM   27  C   UNK N   1      38.416  29.061  54.650  0.00  0.00     0.173 C 
HETATM   28  F   UNK N   1      38.753  28.486  55.864  0.00  0.00    -0.249 F 
HETATM   29  C   UNK N   1      36.886  29.268  54.622  0.00  0.00     0.056 C 
HETATM   30  C   UNK N   1      36.519  30.496  53.791  0.00  0.00     0.119 C 
ENDBRANCH  23  24
ENDBRANCH  22  23
ENDBRANCH  20  22
ENDBRANCH   4  17
BRANCH   1  31
HETATM   31  C   UNK N   1      41.148  34.255  47.126  0.00  0.00     0.272 C 
HETATM   32  O   UNK N   1      40.653  34.552  46.047  0.00  0.00    -0.266 OA
HETATM   33  N   UNK N   1      42.224  33.391  47.143  0.00  0.00    -0.343 N 
HETATM   34  C   UNK N   1      42.857  32.993  48.403  0.00  0.00     0.152 C 
HETATM   35  C   UNK N   1      42.618  32.759  45.874  0.00  0.00     0.152 C 
HETATM   36  C   UNK N   1      44.131  32.167  48.201  0.00  0.00     0.187 C 
HETATM   37  O   UNK N   1      43.939  31.209  47.183  0.00  0.00    -0.388 OA
HETATM   38  C   UNK N   1      43.896  31.920  45.965  0.00  0.00     0.187 C 
ENDBRANCH   1  31
TORSDOF 5
ENDMDL
MODEL 5
REMARK VINA RESULT:      -7.8      4.090      7.257
REMARK  5 active torsions:
REMARK  status: ('A' for Active; 'I' for Inactive)
REMARK    1  A    between atoms: C_2  and  C_3 
REMARK       I    between atoms: C_2  and  N_33 
REMARK    2  A    between atoms: N_6  and  C_7 
REMARK    3  A    between atoms: N_10  and  C_11 
REMARK    4  A    between atoms: C_11  and  C_12 
REMARK    5  A    between atoms: C_12  and  N_13 
ROOT
HETATM    1  C   UNK N   1      41.598  39.970  55.346  0.00  0.00     0.126 A 
HETATM    2  N   UNK N   1      40.731  39.786  54.331  0.00  0.00    -0.292 N 
ATOM      3  HN  UNK N   1      39.735  40.006  54.361  1.00  0.00     0.187 HD
HETATM    4  N   UNK N   1      41.370  39.273  53.285  0.00  0.00    -0.284 N 
HETATM    5  C   UNK N   1      42.699  39.121  53.609  0.00  0.00     0.072 A 
HETATM    6  C   UNK N   1      42.862  39.589  54.922  0.00  0.00     0.019 A 
HETATM    7  C   UNK N   1      44.152  39.691  55.698  0.00  0.00     0.189 C 
HETATM    8  S   UNK N   1      45.431  40.039  54.493  0.00  0.00     0.180 S 
HETATM    9  O   UNK N   1      46.835  39.845  55.084  0.00  0.00    -0.222 OA
HETATM   10  O   UNK N   1      45.422  41.522  54.092  0.00  0.00    -0.222 OA
HETATM   11  C   UNK N   1      45.183  39.027  53.066  0.00  0.00     0.072 A 
HETATM   12  C   UNK N   1      46.273  38.614  52.291  0.00  0.00     0.024 A 
HETATM   13  C   UNK N   1      46.073  37.780  51.195  0.00  0.00     0.002 A 
HETATM   14  C   UNK N   1      44.788  37.350  50.881  0.00  0.00     0.001 A 
HETATM   15  C   UNK N   1      43.700  37.769  51.649  0.00  0.00     0.015 A 
HETATM   16  C   UNK N   1      43.861  38.628  52.748  0.00  0.00     0.014 A 
ENDROOT
BRANCH   4  17
HETATM   17  C   UNK N   1      40.637  39.062  52.017  0.00  0.00     0.138 C 
HETATM   18  C   UNK N   1      41.095  39.898  50.823  0.00  0.00     0.059 C 
HETATM   19  C   UNK N   1      41.036  38.931  49.634  0.00  0.00     0.274 C 
HETATM   20  N   UNK N   1      40.378  37.691  50.079  0.00  0.00     0.092 N 
HETATM   21  C   UNK N   1      40.482  37.623  51.546  0.00  0.00     0.299 C 
BRANCH  20  22
HETATM   22  C   UNK N   1      39.057  37.423  49.483  0.00  0.00     0.291 C 
BRANCH  22  23
HETATM   23  C   UNK N   1      37.916  37.245  50.509  0.00  0.00     0.147 C 
BRANCH  23  24
HETATM   24  N   UNK N   1      36.707  38.021  50.163  0.00  0.00    -0.411 N 
HETATM   25  C   UNK N   1      36.634  38.462  48.741  0.00  0.00     0.119 C 
HETATM   26  C   UNK N   1      36.682  39.986  48.632  0.00  0.00     0.056 C 
HETATM   27  C   UNK N   1      35.510  40.632  49.398  0.00  0.00     0.173 C 
HETATM   28  F   UNK N   1      34.393  40.740  48.587  0.00  0.00    -0.249 F 
HETATM   29  C   UNK N   1      35.115  39.831  50.659  0.00  0.00     0.056 C 
HETATM   30  C   UNK N   1      36.301  39.025  51.185  0.00  0.00     0.119 C 
ENDBRANCH  23  24
ENDBRANCH  22  23
ENDBRANCH  20  22
ENDBRANCH   4  17
BRANCH   1  31
HETATM   31  C   UNK N   1      41.232  40.444  56.726  0.00  0.00     0.272 C 
HETATM   32  O   UNK N   1      41.494  41.605  57.011  0.00  0.00    -0.266 OA
HETATM   33  N   UNK N   1      40.647  39.645  57.687  0.00  0.00    -0.343 N 
HETATM   34  C   UNK N   1      40.312  38.246  57.409  0.00  0.00     0.152 C 
HETATM   35  C   UNK N   1      40.513  40.190  59.047  0.00  0.00     0.152 C 
HETATM   36  C   UNK N   1      39.524  37.579  58.540  0.00  0.00     0.187 C 
HETATM   37  O   UNK N   1      40.071  37.930  59.793  0.00  0.00    -0.388 OA
HETATM   38  C   UNK N   1      39.741  39.285  60.010  0.00  0.00     0.187 C 
ENDBRANCH   1  31
TORSDOF 5
ENDMDL
MODEL 6
REMARK VINA RESULT:      -7.7      3.599      5.386
REMARK  5 active torsions:
REMARK  status: ('A' for Active; 'I' for Inactive)
REMARK    1  A    between atoms: C_2  and  C_3 
REMARK       I    between atoms: C_2  and  N_33 
REMARK    2  A    between atoms: N_6  and  C_7 
REMARK    3  A    between atoms: N_10  and  C_11 
REMARK    4  A    between atoms: C_11  and  C_12 
REMARK    5  A    between atoms: C_12  and  N_13 
ROOT
HETATM    1  C   UNK N   1      40.934  39.321  53.836  0.00  0.00     0.126 A 
HETATM    2  N   UNK N   1      40.640  38.828  52.616  0.00  0.00    -0.292 N 
ATOM      3  HN  UNK N   1      39.702  38.748  52.224  1.00  0.00     0.187 HD
HETATM    4  N   UNK N   1      41.760  38.461  52.002  0.00  0.00    -0.284 N 
HETATM    5  C   UNK N   1      42.827  38.725  52.831  0.00  0.00     0.072 A 
HETATM    6  C   UNK N   1      42.310  39.301  54.001  0.00  0.00     0.019 A 
HETATM    7  C   UNK N   1      43.092  39.825  55.180  0.00  0.00     0.189 C 
HETATM    8  S   UNK N   1      44.631  40.457  54.514  0.00  0.00     0.180 S 
HETATM    9  O   UNK N   1      45.663  40.719  55.622  0.00  0.00    -0.222 OA
HETATM   10  O   UNK N   1      44.431  41.844  53.886  0.00  0.00    -0.222 OA
HETATM   11  C   UNK N   1      45.253  39.329  53.304  0.00  0.00     0.072 A 
HETATM   12  C   UNK N   1      46.631  39.206  53.091  0.00  0.00     0.024 A 
HETATM   13  C   UNK N   1      47.113  38.284  52.167  0.00  0.00     0.002 A 
HETATM   14  C   UNK N   1      46.222  37.477  51.468  0.00  0.00     0.001 A 
HETATM   15  C   UNK N   1      44.847  37.606  51.674  0.00  0.00     0.015 A 
HETATM   16  C   UNK N   1      44.323  38.542  52.581  0.00  0.00     0.014 A 
ENDROOT
BRANCH   4  17
HETATM   17  C   UNK N   1      41.696  37.966  50.609  0.00  0.00     0.138 C 
HETATM   18  C   UNK N   1      42.304  38.873  49.540  0.00  0.00     0.059 C 
HETATM   19  C   UNK N   1      43.027  37.912  48.589  0.00  0.00     0.274 C 
HETATM   20  N   UNK N   1      42.672  36.533  48.966  0.00  0.00     0.092 N 
HETATM   21  C   UNK N   1      42.200  36.551  50.360  0.00  0.00     0.299 C 
BRANCH  20  22
HETATM   22  C   UNK N   1      41.852  35.798  47.987  0.00  0.00     0.291 C 
BRANCH  22  23
HETATM   23  C   UNK N   1      41.778  34.274  48.229  0.00  0.00     0.147 C 
BRANCH  23  24
HETATM   24  N   UNK N   1      42.528  33.496  47.221  0.00  0.00    -0.411 N 
HETATM   25  C   UNK N   1      43.771  32.849  47.730  0.00  0.00     0.119 C 
HETATM   26  C   UNK N   1      45.013  33.430  47.054  0.00  0.00     0.056 C 
HETATM   27  C   UNK N   1      44.955  33.228  45.526  0.00  0.00     0.173 C 
HETATM   28  F   UNK N   1      45.495  32.004  45.172  0.00  0.00    -0.249 F 
HETATM   29  C   UNK N   1      43.514  33.297  44.975  0.00  0.00     0.056 C 
HETATM   30  C   UNK N   1      42.624  34.143  45.883  0.00  0.00     0.119 C 
ENDBRANCH  23  24
ENDBRANCH  22  23
ENDBRANCH  20  22
ENDBRANCH   4  17
BRANCH   1  31
HETATM   31  C   UNK N   1      39.923  39.752  54.864  0.00  0.00     0.272 C 
HETATM   32  O   UNK N   1      39.428  40.864  54.736  0.00  0.00    -0.266 OA
HETATM   33  N   UNK N   1      39.547  38.984  55.947  0.00  0.00    -0.343 N 
HETATM   34  C   UNK N   1      40.108  37.646  56.159  0.00  0.00     0.152 C 
HETATM   35  C   UNK N   1      38.689  39.606  56.967  0.00  0.00     0.152 C 
HETATM   36  C   UNK N   1      39.445  36.893  57.316  0.00  0.00     0.187 C 
HETATM   37  O   UNK N   1      39.257  37.753  58.418  0.00  0.00    -0.388 OA
HETATM   38  C   UNK N   1      38.221  38.643  58.062  0.00  0.00     0.187 C 
ENDBRANCH   1  31
TORSDOF 5
ENDMDL
MODEL 7
REMARK VINA RESULT:      -7.7      2.827      5.528
REMARK  5 active torsions:
REMARK  status: ('A' for Active; 'I' for Inactive)
REMARK    1  A    between atoms: C_2  and  C_3 
REMARK       I    between atoms: C_2  and  N_33 
REMARK    2  A    between atoms: N_6  and  C_7 
REMARK    3  A    between atoms: N_10  and  C_11 
REMARK    4  A    between atoms: C_11  and  C_12 
REMARK    5  A    between atoms: C_12  and  N_13 
ROOT
HETATM    1  C   UNK N   1      39.181  40.288  55.141  0.00  0.00     0.126 A 
HETATM    2  N   UNK N   1      40.510  40.504  55.071  0.00  0.00    -0.292 N 
ATOM      3  HN  UNK N   1      41.064  40.990  55.776  1.00  0.00     0.187 HD
HETATM    4  N   UNK N   1      40.987  39.989  53.943  0.00  0.00    -0.284 N 
HETATM    5  C   UNK N   1      39.951  39.407  53.249  0.00  0.00     0.072 A 
HETATM    6  C   UNK N   1      38.791  39.570  54.021  0.00  0.00     0.019 A 
HETATM    7  C   UNK N   1      37.411  39.042  53.714  0.00  0.00     0.189 C 
HETATM    8  S   UNK N   1      37.653  37.499  52.837  0.00  0.00     0.180 S 
HETATM    9  O   UNK N   1      36.356  37.014  52.174  0.00  0.00    -0.222 OA
HETATM   10  O   UNK N   1      37.996  36.361  53.810  0.00  0.00    -0.222 OA
HETATM   11  C   UNK N   1      38.952  37.694  51.655  0.00  0.00     0.072 A 
HETATM   12  C   UNK N   1      38.947  36.952  50.468  0.00  0.00     0.024 A 
HETATM   13  C   UNK N   1      39.950  37.144  49.522  0.00  0.00     0.002 A 
HETATM   14  C   UNK N   1      40.948  38.085  49.756  0.00  0.00     0.001 A 
HETATM   15  C   UNK N   1      40.957  38.818  50.944  0.00  0.00     0.015 A 
HETATM   16  C   UNK N   1      39.975  38.635  51.930  0.00  0.00     0.014 A 
ENDROOT
BRANCH   4  17
HETATM   17  C   UNK N   1      42.444  40.029  53.685  0.00  0.00     0.138 C 
HETATM   18  C   UNK N   1      43.154  41.339  54.020  0.00  0.00     0.059 C 
HETATM   19  C   UNK N   1      44.483  40.904  54.650  0.00  0.00     0.274 C 
HETATM   20  N   UNK N   1      44.618  39.447  54.485  0.00  0.00     0.092 N 
HETATM   21  C   UNK N   1      43.274  38.890  54.260  0.00  0.00     0.299 C 
BRANCH  20  22
HETATM   22  C   UNK N   1      45.691  39.007  53.577  0.00  0.00     0.291 C 
BRANCH  22  23
HETATM   23  C   UNK N   1      45.198  38.256  52.320  0.00  0.00     0.147 C 
BRANCH  23  24
HETATM   24  N   UNK N   1      46.299  37.881  51.407  0.00  0.00    -0.411 N 
HETATM   25  C   UNK N   1      47.662  38.241  51.892  0.00  0.00     0.119 C 
HETATM   26  C   UNK N   1      48.317  39.280  50.981  0.00  0.00     0.056 C 
HETATM   27  C   UNK N   1      48.442  38.748  49.539  0.00  0.00     0.173 C 
HETATM   28  F   UNK N   1      49.626  38.050  49.374  0.00  0.00    -0.249 F 
HETATM   29  C   UNK N   1      47.273  37.816  49.149  0.00  0.00     0.056 C 
HETATM   30  C   UNK N   1      46.025  38.138  49.966  0.00  0.00     0.119 C 
ENDBRANCH  23  24
ENDBRANCH  22  23
ENDBRANCH  20  22
ENDBRANCH   4  17
BRANCH   1  31
HETATM   31  C   UNK N   1      38.273  40.805  56.224  0.00  0.00     0.272 C 
HETATM   32  O   UNK N   1      37.996  40.042  57.139  0.00  0.00    -0.266 OA
HETATM   33  N   UNK N   1      37.719  42.069  56.229  0.00  0.00    -0.343 N 
HETATM   34  C   UNK N   1      38.008  43.028  55.159  0.00  0.00     0.152 C 
HETATM   35  C   UNK N   1      36.708  42.373  57.253  0.00  0.00     0.152 C 
HETATM   36  C   UNK N   1      37.436  44.422  55.429  0.00  0.00     0.187 C 
HETATM   37  O   UNK N   1      36.125  44.324  55.943  0.00  0.00    -0.388 OA
HETATM   38  C   UNK N   1      36.245  43.833  57.260  0.00  0.00     0.187 C 
ENDBRANCH   1  31
TORSDOF 5
ENDMDL
MODEL 8
REMARK VINA RESULT:      -7.6      3.422      5.180
REMARK  5 active torsions:
REMARK  status: ('A' for Active; 'I' for Inactive)
REMARK    1  A    between atoms: C_2  and  C_3 
REMARK       I    between atoms: C_2  and  N_33 
REMARK    2  A    between atoms: N_6  and  C_7 
REMARK    3  A    between atoms: N_10  and  C_11 
REMARK    4  A    between atoms: C_11  and  C_12 
REMARK    5  A    between atoms: C_12  and  N_13 
ROOT
HETATM    1  C   UNK N   1      40.099  38.836  54.132  0.00  0.00     0.126 A 
HETATM    2  N   UNK N   1      40.151  38.523  52.822  0.00  0.00    -0.292 N 
ATOM      3  HN  UNK N   1      39.341  38.360  52.224  1.00  0.00     0.187 HD
HETATM    4  N   UNK N   1      41.419  38.459  52.429  0.00  0.00    -0.284 N 
HETATM    5  C   UNK N   1      42.231  38.745  53.503  0.00  0.00     0.072 A 
HETATM    6  C   UNK N   1      41.393  39.015  54.596  0.00  0.00     0.019 A 
HETATM    7  C   UNK N   1      41.812  39.445  55.979  0.00  0.00     0.189 C 
HETATM    8  S   UNK N   1      43.295  40.428  55.766  0.00  0.00     0.180 S 
HETATM    9  O   UNK N   1      44.019  40.659  57.101  0.00  0.00    -0.222 OA
HETATM   10  O   UNK N   1      42.951  41.852  55.304  0.00  0.00    -0.222 OA
HETATM   11  C   UNK N   1      44.350  39.648  54.583  0.00  0.00     0.072 A 
HETATM   12  C   UNK N   1      45.740  39.793  54.668  0.00  0.00     0.024 A 
HETATM   13  C   UNK N   1      46.565  39.139  53.758  0.00  0.00     0.002 A 
HETATM   14  C   UNK N   1      46.004  38.332  52.774  0.00  0.00     0.001 A 
HETATM   15  C   UNK N   1      44.618  38.195  52.684  0.00  0.00     0.015 A 
HETATM   16  C   UNK N   1      43.753  38.857  53.570  0.00  0.00     0.014 A 
ENDROOT
BRANCH   4  17
HETATM   17  C   UNK N   1      41.726  38.212  51.002  0.00  0.00     0.138 C 
HETATM   18  C   UNK N   1      42.451  39.335  50.262  0.00  0.00     0.059 C 
HETATM   19  C   UNK N   1      43.473  38.612  49.377  0.00  0.00     0.274 C 
HETATM   20  N   UNK N   1      43.201  37.166  49.442  0.00  0.00     0.092 N 
HETATM   21  C   UNK N   1      42.430  36.904  50.669  0.00  0.00     0.299 C 
BRANCH  20  22
HETATM   22  C   UNK N   1      42.710  36.554  48.195  0.00  0.00     0.291 C 
BRANCH  22  23
HETATM   23  C   UNK N   1      42.313  35.067  48.323  0.00  0.00     0.147 C 
BRANCH  23  24
HETATM   24  N   UNK N   1      43.278  34.157  47.672  0.00  0.00    -0.411 N 
HETATM   25  C   UNK N   1      43.242  34.171  46.181  0.00  0.00     0.119 C 
HETATM   26  C   UNK N   1      42.795  32.818  45.627  0.00  0.00     0.056 C 
HETATM   27  C   UNK N   1      43.752  31.695  46.076  0.00  0.00     0.173 C 
HETATM   28  F   UNK N   1      44.806  31.563  45.189  0.00  0.00    -0.249 F 
HETATM   29  C   UNK N   1      44.334  31.942  47.485  0.00  0.00     0.056 C 
HETATM   30  C   UNK N   1      43.399  32.819  48.314  0.00  0.00     0.119 C 
ENDBRANCH  23  24
ENDBRANCH  22  23
ENDBRANCH  20  22
ENDBRANCH   4  17
BRANCH   1  31
HETATM   31  C   UNK N   1      38.843  38.909  54.957  0.00  0.00     0.272 C 
HETATM   32  O   UNK N   1      38.403  37.860  55.408  0.00  0.00    -0.266 OA
HETATM   33  N   UNK N   1      38.151  40.076  55.209  0.00  0.00    -0.343 N 
HETATM   34  C   UNK N   1      38.624  41.364  54.694  0.00  0.00     0.152 C 
HETATM   35  C   UNK N   1      36.844  39.971  55.875  0.00  0.00     0.152 C 
HETATM   36  C   UNK N   1      37.816  42.555  55.217  0.00  0.00     0.187 C 
HETATM   37  O   UNK N   1      36.436  42.259  55.198  0.00  0.00    -0.388 OA
HETATM   38  C   UNK N   1      36.211  41.321  56.227  0.00  0.00     0.187 C 
ENDBRANCH   1  31
TORSDOF 5
ENDMDL
MODEL 9
REMARK VINA RESULT:      -7.4      4.287      7.537
REMARK  5 active torsions:
REMARK  status: ('A' for Active; 'I' for Inactive)
REMARK    1  A    between atoms: C_2  and  C_3 
REMARK       I    between atoms: C_2  and  N_33 
REMARK    2  A    between atoms: N_6  and  C_7 
REMARK    3  A    between atoms: N_10  and  C_11 
REMARK    4  A    between atoms: C_11  and  C_12 
REMARK    5  A    between atoms: C_12  and  N_13 
ROOT
HETATM    1  C   UNK N   1      40.682  34.955  48.193  0.00  0.00     0.126 A 
HETATM    2  N   UNK N   1      41.304  35.910  48.913  0.00  0.00    -0.292 N 
ATOM      3  HN  UNK N   1      42.203  36.331  48.678  1.00  0.00     0.187 HD
HETATM    4  N   UNK N   1      40.568  36.217  49.976  0.00  0.00    -0.284 N 
HETATM    5  C   UNK N   1      39.423  35.453  49.958  0.00  0.00     0.072 A 
HETATM    6  C   UNK N   1      39.473  34.658  48.803  0.00  0.00     0.019 A 
HETATM    7  C   UNK N   1      38.415  33.704  48.308  0.00  0.00     0.189 C 
HETATM    8  S   UNK N   1      36.842  34.404  48.805  0.00  0.00     0.180 S 
HETATM    9  O   UNK N   1      35.699  33.389  48.663  0.00  0.00    -0.222 OA
HETATM   10  O   UNK N   1      36.422  35.540  47.860  0.00  0.00    -0.222 OA
HETATM   11  C   UNK N   1      36.968  35.012  50.460  0.00  0.00     0.072 A 
HETATM   12  C   UNK N   1      35.848  35.021  51.299  0.00  0.00     0.024 A 
HETATM   13  C   UNK N   1      35.966  35.459  52.614  0.00  0.00     0.002 A 
HETATM   14  C   UNK N   1      37.204  35.876  53.094  0.00  0.00     0.001 A 
HETATM   15  C   UNK N   1      38.319  35.875  52.254  0.00  0.00     0.015 A 
HETATM   16  C   UNK N   1      38.232  35.461  50.915  0.00  0.00     0.014 A 
ENDROOT
BRANCH   4  17
HETATM   17  C   UNK N   1      41.010  37.307  50.875  0.00  0.00     0.138 C 
HETATM   18  C   UNK N   1      42.518  37.498  51.016  0.00  0.00     0.059 C 
HETATM   19  C   UNK N   1      42.712  39.019  51.030  0.00  0.00     0.274 C 
HETATM   20  N   UNK N   1      41.385  39.653  51.113  0.00  0.00     0.092 N 
HETATM   21  C   UNK N   1      40.386  38.677  50.649  0.00  0.00     0.299 C 
BRANCH  20  22
HETATM   22  C   UNK N   1      41.098  40.365  52.370  0.00  0.00     0.291 C 
BRANCH  22  23
HETATM   23  C   UNK N   1      40.618  39.459  53.525  0.00  0.00     0.147 C 
BRANCH  23  24
HETATM   24  N   UNK N   1      41.552  39.446  54.671  0.00  0.00    -0.411 N 
HETATM   25  C   UNK N   1      40.901  39.310  56.005  0.00  0.00     0.119 C 
HETATM   26  C   UNK N   1      41.118  40.561  56.856  0.00  0.00     0.056 C 
HETATM   27  C   UNK N   1      42.621  40.824  57.077  0.00  0.00     0.173 C 
HETATM   28  F   UNK N   1      43.080  40.146  58.193  0.00  0.00    -0.249 F 
HETATM   29  C   UNK N   1      43.480  40.399  55.866  0.00  0.00     0.056 C 
HETATM   30  C   UNK N   1      42.660  40.435  54.578  0.00  0.00     0.119 C 
ENDBRANCH  23  24
ENDBRANCH  22  23
ENDBRANCH  20  22
ENDBRANCH   4  17
BRANCH   1  31
HETATM   31  C   UNK N   1      41.248  34.283  46.971  0.00  0.00     0.272 C 
HETATM   32  O   UNK N   1      40.726  34.539  45.894  0.00  0.00    -0.266 OA
HETATM   33  N   UNK N   1      42.292  33.382  47.000  0.00  0.00    -0.343 N 
HETATM   34  C   UNK N   1      42.956  33.029  48.258  0.00  0.00     0.152 C 
HETATM   35  C   UNK N   1      42.619  32.667  45.756  0.00  0.00     0.152 C 
HETATM   36  C   UNK N   1      44.191  32.146  48.061  0.00  0.00     0.187 C 
HETATM   37  O   UNK N   1      43.929  31.142  47.104  0.00  0.00    -0.388 OA
HETATM   38  C   UNK N   1      43.868  31.786  45.850  0.00  0.00     0.187 C 
ENDBRANCH   1  31
TORSDOF 5
ENDMDL
