MODEL 1
REMARK VINA RESULT:      -9.0      0.000      0.000
REMARK  5 active torsions:
REMARK  status: ('A' for Active; 'I' for Inactive)
REMARK    1  A    between atoms: C_2  and  C_3 
REMARK       I    between atoms: C_2  and  N_34 
REMARK    2  A    between atoms: N_6  and  C_7 
REMARK    3  A    between atoms: N_11  and  C_12 
REMARK    4  A    between atoms: C_12  and  C_13 
REMARK    5  A    between atoms: C_13  and  C_14 
ROOT
HETATM    1  C   UNK N   1      40.443  34.631  48.001  0.00  0.00     0.126 A 
HETATM    2  N   UNK N   1      40.901  35.574  48.842  0.00  0.00    -0.292 N 
ATOM      3  HN  UNK N   1      41.817  36.018  48.780  1.00  0.00     0.187 HD
HETATM    4  N   UNK N   1      39.985  35.839  49.761  0.00  0.00    -0.284 N 
HETATM    5  C   UNK N   1      38.900  35.031  49.555  0.00  0.00     0.074 A 
HETATM    6  C   UNK N   1      39.171  34.246  48.421  0.00  0.00     0.019 A 
HETATM    7  C   UNK N   1      38.229  33.255  47.783  0.00  0.00     0.191 C 
HETATM    8  S   UNK N   1      36.577  33.910  47.999  0.00  0.00     0.196 S 
HETATM    9  O   UNK N   1      36.262  35.000  46.962  0.00  0.00    -0.221 OA
HETATM   10  O   UNK N   1      35.508  32.841  47.723  0.00  0.00    -0.221 OA
HETATM   11  C   UNK N   1      36.412  34.551  49.637  0.00  0.00     0.141 A 
HETATM   12  N   UNK N   1      35.199  34.545  50.252  0.00  0.00    -0.356 N 
ATOM     13  HN  UNK N   1      34.386  34.192  49.747  1.00  0.00     0.166 HD
HETATM   14  C   UNK N   1      35.046  34.996  51.521  0.00  0.00     0.089 A 
HETATM   15  C   UNK N   1      36.146  35.467  52.230  0.00  0.00     0.018 A 
HETATM   16  C   UNK N   1      37.403  35.487  51.621  0.00  0.00     0.018 A 
HETATM   17  C   UNK N   1      37.566  35.036  50.295  0.00  0.00     0.031 A 
ENDROOT
BRANCH   4  18
HETATM   18  C   UNK N   1      40.114  37.016  50.646  0.00  0.00     0.137 C 
HETATM   19  C   UNK N   1      39.213  38.169  50.095  0.00  0.00     0.031 C 
HETATM   20  C   UNK N   1      40.058  39.102  49.223  0.00  0.00     0.032 C 
HETATM   21  C   UNK N   1      41.102  39.789  50.141  0.00  0.00     0.272 C 
HETATM   22  N   UNK N   1      41.597  38.890  51.224  0.00  0.00     0.090 N 
HETATM   23  C   UNK N   1      41.595  37.487  50.783  0.00  0.00     0.299 C 
BRANCH  22  24
HETATM   24  C   UNK N   1      42.897  39.303  51.780  0.00  0.00     0.273 C 
BRANCH  24  25
HETATM   25  C   UNK N   1      43.635  38.116  52.429  0.00  0.00     0.035 C 
BRANCH  25  26
HETATM   26  C   UNK N   1      44.702  38.572  53.443  0.00  0.00    -0.009 C 
HETATM   27  C   UNK N   1      46.143  38.494  52.874  0.00  0.00     0.031 C 
HETATM   28  C   UNK N   1      47.069  39.537  53.536  0.00  0.00     0.168 C 
HETATM   29  O   UNK N   1      46.777  39.683  54.908  0.00  0.00    -0.391 OA
HETATM   30  C   UNK N   1      45.470  40.231  55.114  0.00  0.00     0.168 C 
HETATM   31  C   UNK N   1      44.458  39.993  53.956  0.00  0.00     0.031 C 
ENDBRANCH  25  26
ENDBRANCH  24  25
ENDBRANCH  22  24
ENDBRANCH   4  18
BRANCH   1  32
HETATM   32  C   UNK N   1      41.157  34.228  46.741  0.00  0.00     0.272 C 
HETATM   33  O   UNK N   1      40.699  34.618  45.677  0.00  0.00    -0.266 OA
HETATM   34  N   UNK N   1      42.338  33.510  46.732  0.00  0.00    -0.343 N 
HETATM   35  C   UNK N   1      43.102  33.466  45.475  0.00  0.00     0.152 C 
HETATM   36  C   UNK N   1      42.896  32.945  47.964  0.00  0.00     0.152 C 
HETATM   37  C   UNK N   1      44.403  32.648  45.543  0.00  0.00     0.187 C 
HETATM   38  O   UNK N   1      44.992  32.722  46.823  0.00  0.00    -0.388 OA
HETATM   39  C   UNK N   1      44.114  32.064  47.709  0.00  0.00     0.187 C 
ENDBRANCH   1  32
TORSDOF 5
ENDMDL
MODEL 2
REMARK VINA RESULT:      -8.7      5.212      9.234
REMARK  5 active torsions:
REMARK  status: ('A' for Active; 'I' for Inactive)
REMARK    1  A    between atoms: C_2  and  C_3 
REMARK       I    between atoms: C_2  and  N_34 
REMARK    2  A    between atoms: N_6  and  C_7 
REMARK    3  A    between atoms: N_11  and  C_12 
REMARK    4  A    between atoms: C_12  and  C_13 
REMARK    5  A    between atoms: C_13  and  C_14 
ROOT
HETATM    1  C   UNK N   1      39.456  38.651  54.541  0.00  0.00     0.126 A 
HETATM    2  N   UNK N   1      39.837  38.705  53.253  0.00  0.00    -0.292 N 
ATOM      3  HN  UNK N   1      39.226  38.541  52.454  1.00  0.00     0.187 HD
HETATM    4  N   UNK N   1      41.126  39.002  53.179  0.00  0.00    -0.284 N 
HETATM    5  C   UNK N   1      41.631  39.116  54.445  0.00  0.00     0.074 A 
HETATM    6  C   UNK N   1      40.570  38.899  55.340  0.00  0.00     0.019 A 
HETATM    7  C   UNK N   1      40.646  38.991  56.845  0.00  0.00     0.191 C 
HETATM    8  S   UNK N   1      41.834  40.277  57.218  0.00  0.00     0.196 S 
HETATM    9  O   UNK N   1      41.213  41.676  57.083  0.00  0.00    -0.221 OA
HETATM   10  O   UNK N   1      42.274  40.227  58.689  0.00  0.00    -0.221 OA
HETATM   11  C   UNK N   1      43.227  40.115  56.143  0.00  0.00     0.141 A 
HETATM   12  N   UNK N   1      44.458  40.515  56.559  0.00  0.00    -0.356 N 
ATOM     13  HN  UNK N   1      44.561  40.932  57.484  1.00  0.00     0.166 HD
HETATM   14  C   UNK N   1      45.554  40.371  55.772  0.00  0.00     0.089 A 
HETATM   15  C   UNK N   1      45.435  39.791  54.515  0.00  0.00     0.018 A 
HETATM   16  C   UNK N   1      44.182  39.374  54.061  0.00  0.00     0.018 A 
HETATM   17  C   UNK N   1      43.035  39.537  54.867  0.00  0.00     0.031 A 
ENDROOT
BRANCH   4  18
HETATM   18  C   UNK N   1      41.745  39.385  51.892  0.00  0.00     0.137 C 
HETATM   19  C   UNK N   1      40.629  39.876  50.914  0.00  0.00     0.031 C 
HETATM   20  C   UNK N   1      40.191  38.713  50.019  0.00  0.00     0.032 C 
HETATM   21  C   UNK N   1      41.396  38.331  49.120  0.00  0.00     0.272 C 
HETATM   22  N   UNK N   1      42.705  38.472  49.822  0.00  0.00     0.090 N 
HETATM   23  C   UNK N   1      42.559  38.213  51.262  0.00  0.00     0.299 C 
BRANCH  22  24
HETATM   24  C   UNK N   1      43.785  37.675  49.213  0.00  0.00     0.273 C 
BRANCH  24  25
HETATM   25  C   UNK N   1      44.765  37.147  50.279  0.00  0.00     0.035 C 
BRANCH  25  26
HETATM   26  C   UNK N   1      46.079  37.951  50.317  0.00  0.00    -0.009 C 
HETATM   27  C   UNK N   1      46.599  38.182  51.761  0.00  0.00     0.031 C 
HETATM   28  C   UNK N   1      48.136  38.323  51.791  0.00  0.00     0.168 C 
HETATM   29  O   UNK N   1      48.607  39.034  50.667  0.00  0.00    -0.391 OA
HETATM   30  C   UNK N   1      48.371  38.315  49.451  0.00  0.00     0.168 C 
HETATM   31  C   UNK N   1      47.193  37.298  49.497  0.00  0.00     0.031 C 
ENDBRANCH  25  26
ENDBRANCH  24  25
ENDBRANCH  22  24
ENDBRANCH   4  18
BRANCH   1  32
HETATM   32  C   UNK N   1      38.023  38.516  54.974  0.00  0.00     0.272 C 
HETATM   33  O   UNK N   1      37.589  37.389  55.160  0.00  0.00    -0.266 OA
HETATM   34  N   UNK N   1      37.204  39.595  55.243  0.00  0.00    -0.343 N 
HETATM   35  C   UNK N   1      35.949  39.339  55.967  0.00  0.00     0.152 C 
HETATM   36  C   UNK N   1      37.635  40.968  54.963  0.00  0.00     0.152 C 
HETATM   37  C   UNK N   1      35.091  40.589  56.228  0.00  0.00     0.187 C 
HETATM   38  O   UNK N   1      35.893  41.734  56.420  0.00  0.00    -0.388 OA
HETATM   39  C   UNK N   1      36.528  41.992  55.187  0.00  0.00     0.187 C 
ENDBRANCH   1  32
TORSDOF 5
ENDMDL
MODEL 3
REMARK VINA RESULT:      -8.5      4.560     10.031
REMARK  5 active torsions:
REMARK  status: ('A' for Active; 'I' for Inactive)
REMARK    1  A    between atoms: C_2  and  C_3 
REMARK       I    between atoms: C_2  and  N_34 
REMARK    2  A    between atoms: N_6  and  C_7 
REMARK    3  A    between atoms: N_11  and  C_12 
REMARK    4  A    between atoms: C_12  and  C_13 
REMARK    5  A    between atoms: C_13  and  C_14 
ROOT
HETATM    1  C   UNK N   1      40.033  38.950  54.710  0.00  0.00     0.126 A 
HETATM    2  N   UNK N   1      40.213  38.809  53.386  0.00  0.00    -0.292 N 
ATOM      3  HN  UNK N   1      39.469  38.650  52.706  1.00  0.00     0.187 HD
HETATM    4  N   UNK N   1      41.502  38.908  53.096  0.00  0.00    -0.284 N 
HETATM    5  C   UNK N   1      42.207  39.084  54.255  0.00  0.00     0.074 A 
HETATM    6  C   UNK N   1      41.279  39.120  55.309  0.00  0.00     0.019 A 
HETATM    7  C   UNK N   1      41.599  39.361  56.764  0.00  0.00     0.191 C 
HETATM    8  S   UNK N   1      42.983  40.497  56.801  0.00  0.00     0.196 S 
HETATM    9  O   UNK N   1      42.529  41.947  56.576  0.00  0.00    -0.221 OA
HETATM   10  O   UNK N   1      43.635  40.543  58.191  0.00  0.00    -0.221 OA
HETATM   11  C   UNK N   1      44.161  40.021  55.573  0.00  0.00     0.141 A 
HETATM   12  N   UNK N   1      45.482  40.283  55.759  0.00  0.00    -0.356 N 
ATOM     13  HN  UNK N   1      45.778  40.778  56.600  1.00  0.00     0.166 HD
HETATM   14  C   UNK N   1      46.415  39.899  54.853  0.00  0.00     0.089 A 
HETATM   15  C   UNK N   1      46.030  39.210  53.709  0.00  0.00     0.018 A 
HETATM   16  C   UNK N   1      44.680  38.931  53.491  0.00  0.00     0.018 A 
HETATM   17  C   UNK N   1      43.702  39.342  54.420  0.00  0.00     0.031 A 
ENDROOT
BRANCH   4  18
HETATM   18  C   UNK N   1      41.958  39.058  51.697  0.00  0.00     0.137 C 
HETATM   19  C   UNK N   1      40.863  39.820  50.882  0.00  0.00     0.031 C 
HETATM   20  C   UNK N   1      39.963  38.808  50.169  0.00  0.00     0.032 C 
HETATM   21  C   UNK N   1      40.828  38.067  49.117  0.00  0.00     0.272 C 
HETATM   22  N   UNK N   1      42.230  37.845  49.577  0.00  0.00     0.090 N 
HETATM   23  C   UNK N   1      42.284  37.683  51.037  0.00  0.00     0.299 C 
BRANCH  22  24
HETATM   24  C   UNK N   1      42.915  36.753  48.863  0.00  0.00     0.273 C 
BRANCH  24  25
HETATM   25  C   UNK N   1      42.823  35.426  49.642  0.00  0.00     0.035 C 
BRANCH  25  26
HETATM   26  C   UNK N   1      42.777  34.200  48.710  0.00  0.00    -0.009 C 
HETATM   27  C   UNK N   1      41.515  34.181  47.808  0.00  0.00     0.031 C 
HETATM   28  C   UNK N   1      41.782  33.439  46.480  0.00  0.00     0.168 C 
HETATM   29  O   UNK N   1      42.620  32.322  46.677  0.00  0.00    -0.391 OA
HETATM   30  C   UNK N   1      43.931  32.713  47.101  0.00  0.00     0.168 C 
HETATM   31  C   UNK N   1      44.015  34.092  47.818  0.00  0.00     0.031 C 
ENDBRANCH  25  26
ENDBRANCH  24  25
ENDBRANCH  22  24
ENDBRANCH   4  18
BRANCH   1  32
HETATM   32  C   UNK N   1      38.679  39.069  55.352  0.00  0.00     0.272 C 
HETATM   33  O   UNK N   1      38.187  38.060  55.835  0.00  0.00    -0.266 OA
HETATM   34  N   UNK N   1      38.003  40.267  55.488  0.00  0.00    -0.343 N 
HETATM   35  C   UNK N   1      36.860  40.307  56.413  0.00  0.00     0.152 C 
HETATM   36  C   UNK N   1      38.498  41.496  54.861  0.00  0.00     0.152 C 
HETATM   37  C   UNK N   1      36.159  41.674  56.509  0.00  0.00     0.187 C 
HETATM   38  O   UNK N   1      37.074  42.734  56.339  0.00  0.00    -0.388 OA
HETATM   39  C   UNK N   1      37.528  42.664  55.004  0.00  0.00     0.187 C 
ENDBRANCH   1  32
TORSDOF 5
ENDMDL
MODEL 4
REMARK VINA RESULT:      -8.5      5.474      8.511
REMARK  5 active torsions:
REMARK  status: ('A' for Active; 'I' for Inactive)
REMARK    1  A    between atoms: C_2  and  C_3 
REMARK       I    between atoms: C_2  and  N_34 
REMARK    2  A    between atoms: N_6  and  C_7 
REMARK    3  A    between atoms: N_11  and  C_12 
REMARK    4  A    between atoms: C_12  and  C_13 
REMARK    5  A    between atoms: C_13  and  C_14 
ROOT
HETATM    1  C   UNK N   1      40.264  39.145  51.652  0.00  0.00     0.126 A 
HETATM    2  N   UNK N   1      39.944  39.589  52.880  0.00  0.00    -0.292 N 
ATOM      3  HN  UNK N   1      38.995  39.768  53.210  1.00  0.00     0.187 HD
HETATM    4  N   UNK N   1      41.045  39.760  53.596  0.00  0.00    -0.284 N 
HETATM    5  C   UNK N   1      42.132  39.457  52.821  0.00  0.00     0.074 A 
HETATM    6  C   UNK N   1      41.651  39.052  51.565  0.00  0.00     0.019 A 
HETATM    7  C   UNK N   1      42.490  38.562  50.410  0.00  0.00     0.191 C 
HETATM    8  S   UNK N   1      43.875  37.680  51.124  0.00  0.00     0.196 S 
HETATM    9  O   UNK N   1      43.479  36.256  51.547  0.00  0.00    -0.221 OA
HETATM   10  O   UNK N   1      44.986  37.445  50.089  0.00  0.00    -0.221 OA
HETATM   11  C   UNK N   1      44.492  38.586  52.510  0.00  0.00     0.141 A 
HETATM   12  N   UNK N   1      45.807  38.504  52.845  0.00  0.00    -0.356 N 
ATOM     13  HN  UNK N   1      46.423  37.895  52.305  1.00  0.00     0.166 HD
HETATM   14  C   UNK N   1      46.320  39.213  53.881  0.00  0.00     0.089 A 
HETATM   15  C   UNK N   1      45.499  40.059  54.618  0.00  0.00     0.018 A 
HETATM   16  C   UNK N   1      44.144  40.160  54.297  0.00  0.00     0.018 A 
HETATM   17  C   UNK N   1      43.600  39.411  53.233  0.00  0.00     0.031 A 
ENDROOT
BRANCH   4  18
HETATM   18  C   UNK N   1      40.976  39.984  55.056  0.00  0.00     0.137 C 
HETATM   19  C   UNK N   1      40.993  38.601  55.786  0.00  0.00     0.031 C 
HETATM   20  C   UNK N   1      39.556  38.165  56.082  0.00  0.00     0.032 C 
HETATM   21  C   UNK N   1      38.960  39.169  57.103  0.00  0.00     0.272 C 
HETATM   22  N   UNK N   1      39.442  40.565  56.887  0.00  0.00     0.090 N 
HETATM   23  C   UNK N   1      39.717  40.810  55.463  0.00  0.00     0.299 C 
BRANCH  22  24
HETATM   24  C   UNK N   1      38.559  41.588  57.473  0.00  0.00     0.273 C 
BRANCH  24  25
HETATM   25  C   UNK N   1      37.977  42.518  56.391  0.00  0.00     0.035 C 
BRANCH  25  26
HETATM   26  C   UNK N   1      37.866  43.978  56.870  0.00  0.00    -0.009 C 
HETATM   27  C   UNK N   1      36.904  44.825  55.996  0.00  0.00     0.031 C 
HETATM   28  C   UNK N   1      36.264  45.971  56.808  0.00  0.00     0.168 C 
HETATM   29  O   UNK N   1      37.184  46.527  57.721  0.00  0.00    -0.391 OA
HETATM   30  C   UNK N   1      37.560  45.584  58.731  0.00  0.00     0.168 C 
HETATM   31  C   UNK N   1      37.419  44.086  58.330  0.00  0.00     0.031 C 
ENDBRANCH  25  26
ENDBRANCH  24  25
ENDBRANCH  22  24
ENDBRANCH   4  18
BRANCH   1  32
HETATM   32  C   UNK N   1      39.244  38.679  50.650  0.00  0.00     0.272 C 
HETATM   33  O   UNK N   1      39.087  39.352  49.643  0.00  0.00    -0.266 OA
HETATM   34  N   UNK N   1      38.538  37.498  50.776  0.00  0.00    -0.343 N 
HETATM   35  C   UNK N   1      37.828  36.995  49.589  0.00  0.00     0.152 C 
HETATM   36  C   UNK N   1      38.618  36.687  51.995  0.00  0.00     0.152 C 
HETATM   37  C   UNK N   1      37.064  35.678  49.808  0.00  0.00     0.187 C 
HETATM   38  O   UNK N   1      37.721  34.851  50.743  0.00  0.00    -0.388 OA
HETATM   39  C   UNK N   1      37.647  35.512  51.987  0.00  0.00     0.187 C 
ENDBRANCH   1  32
TORSDOF 5
ENDMDL
MODEL 5
REMARK VINA RESULT:      -8.5      2.070      2.601
REMARK  5 active torsions:
REMARK  status: ('A' for Active; 'I' for Inactive)
REMARK    1  A    between atoms: C_2  and  C_3 
REMARK       I    between atoms: C_2  and  N_34 
REMARK    2  A    between atoms: N_6  and  C_7 
REMARK    3  A    between atoms: N_11  and  C_12 
REMARK    4  A    between atoms: C_12  and  C_13 
REMARK    5  A    between atoms: C_13  and  C_14 
ROOT
HETATM    1  C   UNK N   1      40.719  34.924  48.409  0.00  0.00     0.126 A 
HETATM    2  N   UNK N   1      41.531  35.888  48.875  0.00  0.00    -0.292 N 
ATOM      3  HN  UNK N   1      42.464  36.093  48.517  1.00  0.00     0.187 HD
HETATM    4  N   UNK N   1      40.938  36.532  49.869  0.00  0.00    -0.284 N 
HETATM    5  C   UNK N   1      39.714  35.965  50.100  0.00  0.00     0.074 A 
HETATM    6  C   UNK N   1      39.549  34.929  49.165  0.00  0.00     0.019 A 
HETATM    7  C   UNK N   1      38.320  34.069  49.003  0.00  0.00     0.191 C 
HETATM    8  S   UNK N   1      36.914  35.110  49.387  0.00  0.00     0.196 S 
HETATM    9  O   UNK N   1      36.540  36.012  48.201  0.00  0.00    -0.221 OA
HETATM   10  O   UNK N   1      35.643  34.277  49.613  0.00  0.00    -0.221 OA
HETATM   11  C   UNK N   1      37.284  36.086  50.813  0.00  0.00     0.141 A 
HETATM   12  N   UNK N   1      36.284  36.478  51.647  0.00  0.00    -0.356 N 
ATOM     13  HN  UNK N   1      35.322  36.224  51.426  1.00  0.00     0.166 HD
HETATM   14  C   UNK N   1      36.538  37.197  52.768  0.00  0.00     0.089 A 
HETATM   15  C   UNK N   1      37.846  37.539  53.094  0.00  0.00     0.018 A 
HETATM   16  C   UNK N   1      38.891  37.153  52.252  0.00  0.00     0.018 A 
HETATM   17  C   UNK N   1      38.633  36.420  51.075  0.00  0.00     0.031 A 
ENDROOT
BRANCH   4  18
HETATM   18  C   UNK N   1      41.488  37.803  50.388  0.00  0.00     0.137 C 
HETATM   19  C   UNK N   1      41.999  38.666  49.189  0.00  0.00     0.031 C 
HETATM   20  C   UNK N   1      43.500  38.435  49.000  0.00  0.00     0.032 C 
HETATM   21  C   UNK N   1      44.224  38.992  50.254  0.00  0.00     0.272 C 
HETATM   22  N   UNK N   1      43.441  38.790  51.507  0.00  0.00     0.090 N 
HETATM   23  C   UNK N   1      42.627  37.568  51.427  0.00  0.00     0.299 C 
BRANCH  22  24
HETATM   24  C   UNK N   1      44.266  38.837  52.728  0.00  0.00     0.273 C 
BRANCH  24  25
HETATM   25  C   UNK N   1      43.815  39.970  53.670  0.00  0.00     0.035 C 
BRANCH  25  26
HETATM   26  C   UNK N   1      42.844  39.476  54.759  0.00  0.00    -0.009 C 
HETATM   27  C   UNK N   1      43.012  40.237  56.101  0.00  0.00     0.031 C 
HETATM   28  C   UNK N   1      41.690  40.272  56.898  0.00  0.00     0.168 C 
HETATM   29  O   UNK N   1      40.982  39.060  56.770  0.00  0.00    -0.391 OA
HETATM   30  C   UNK N   1      40.543  38.844  55.424  0.00  0.00     0.168 C 
HETATM   31  C   UNK N   1      41.379  39.568  54.327  0.00  0.00     0.031 C 
ENDBRANCH  25  26
ENDBRANCH  24  25
ENDBRANCH  22  24
ENDBRANCH   4  18
BRANCH   1  32
HETATM   32  C   UNK N   1      41.010  34.127  47.168  0.00  0.00     0.272 C 
HETATM   33  O   UNK N   1      40.276  34.285  46.204  0.00  0.00    -0.266 OA
HETATM   34  N   UNK N   1      42.101  33.289  47.040  0.00  0.00    -0.343 N 
HETATM   35  C   UNK N   1      42.458  32.830  45.689  0.00  0.00     0.152 C 
HETATM   36  C   UNK N   1      42.972  32.992  48.182  0.00  0.00     0.152 C 
HETATM   37  C   UNK N   1      43.682  31.900  45.628  0.00  0.00     0.187 C 
HETATM   38  O   UNK N   1      44.626  32.225  46.625  0.00  0.00    -0.388 OA
HETATM   39  C   UNK N   1      44.019  31.931  47.865  0.00  0.00     0.187 C 
ENDBRANCH   1  32
TORSDOF 5
ENDMDL
MODEL 6
REMARK VINA RESULT:      -8.1      5.107      8.940
REMARK  5 active torsions:
REMARK  status: ('A' for Active; 'I' for Inactive)
REMARK    1  A    between atoms: C_2  and  C_3 
REMARK       I    between atoms: C_2  and  N_34 
REMARK    2  A    between atoms: N_6  and  C_7 
REMARK    3  A    between atoms: N_11  and  C_12 
REMARK    4  A    between atoms: C_12  and  C_13 
REMARK    5  A    between atoms: C_13  and  C_14 
ROOT
HETATM    1  C   UNK N   1      39.715  38.834  54.724  0.00  0.00     0.126 A 
HETATM    2  N   UNK N   1      39.967  38.764  53.406  0.00  0.00    -0.292 N 
ATOM      3  HN  UNK N   1      39.266  38.599  52.683  1.00  0.00     0.187 HD
HETATM    4  N   UNK N   1      41.260  38.942  53.186  0.00  0.00    -0.284 N 
HETATM    5  C   UNK N   1      41.899  39.099  54.386  0.00  0.00     0.074 A 
HETATM    6  C   UNK N   1      40.921  39.039  55.392  0.00  0.00     0.019 A 
HETATM    7  C   UNK N   1      41.156  39.228  56.871  0.00  0.00     0.191 C 
HETATM    8  S   UNK N   1      42.475  40.429  57.028  0.00  0.00     0.196 S 
HETATM    9  O   UNK N   1      41.956  41.864  56.844  0.00  0.00    -0.221 OA
HETATM   10  O   UNK N   1      43.056  40.443  58.450  0.00  0.00    -0.221 OA
HETATM   11  C   UNK N   1      43.734  40.071  55.841  0.00  0.00     0.141 A 
HETATM   12  N   UNK N   1      45.029  40.391  56.105  0.00  0.00    -0.356 N 
ATOM     13  HN  UNK N   1      45.258  40.861  56.981  1.00  0.00     0.166 HD
HETATM   14  C   UNK N   1      46.024  40.098  55.231  0.00  0.00     0.089 A 
HETATM   15  C   UNK N   1      45.732  39.443  54.040  0.00  0.00     0.018 A 
HETATM   16  C   UNK N   1      44.410  39.107  53.742  0.00  0.00     0.018 A 
HETATM   17  C   UNK N   1      43.368  39.425  54.638  0.00  0.00     0.031 A 
ENDROOT
BRANCH   4  18
HETATM   18  C   UNK N   1      41.775  39.180  51.820  0.00  0.00     0.137 C 
HETATM   19  C   UNK N   1      40.568  39.315  50.836  0.00  0.00     0.031 C 
HETATM   20  C   UNK N   1      40.294  37.959  50.179  0.00  0.00     0.032 C 
HETATM   21  C   UNK N   1      41.518  37.609  49.293  0.00  0.00     0.272 C 
HETATM   22  N   UNK N   1      42.807  38.068  49.886  0.00  0.00     0.090 N 
HETATM   23  C   UNK N   1      42.745  38.050  51.355  0.00  0.00     0.299 C 
BRANCH  22  24
HETATM   24  C   UNK N   1      43.982  37.347  49.364  0.00  0.00     0.273 C 
BRANCH  24  25
HETATM   25  C   UNK N   1      45.030  38.320  48.789  0.00  0.00     0.035 C 
BRANCH  25  26
HETATM   26  C   UNK N   1      46.188  38.581  49.770  0.00  0.00    -0.009 C 
HETATM   27  C   UNK N   1      46.280  37.510  50.889  0.00  0.00     0.031 C 
HETATM   28  C   UNK N   1      47.729  37.347  51.397  0.00  0.00     0.168 C 
HETATM   29  O   UNK N   1      48.397  38.589  51.447  0.00  0.00    -0.391 OA
HETATM   30  C   UNK N   1      48.571  39.147  50.140  0.00  0.00     0.168 C 
HETATM   31  C   UNK N   1      47.546  38.671  49.070  0.00  0.00     0.031 C 
ENDBRANCH  25  26
ENDBRANCH  24  25
ENDBRANCH  22  24
ENDBRANCH   4  18
BRANCH   1  32
HETATM   32  C   UNK N   1      38.327  38.854  55.301  0.00  0.00     0.272 C 
HETATM   33  O   UNK N   1      37.680  39.885  55.192  0.00  0.00    -0.266 OA
HETATM   34  N   UNK N   1      37.725  37.751  55.875  0.00  0.00    -0.343 N 
HETATM   35  C   UNK N   1      36.272  37.802  56.097  0.00  0.00     0.152 C 
HETATM   36  C   UNK N   1      38.472  36.511  56.110  0.00  0.00     0.152 C 
HETATM   37  C   UNK N   1      35.676  36.538  56.741  0.00  0.00     0.187 C 
HETATM   38  O   UNK N   1      36.372  35.378  56.340  0.00  0.00    -0.388 OA
HETATM   39  C   UNK N   1      37.668  35.477  56.890  0.00  0.00     0.187 C 
ENDBRANCH   1  32
TORSDOF 5
ENDMDL
MODEL 7
REMARK VINA RESULT:      -8.1      3.999      9.701
REMARK  5 active torsions:
REMARK  status: ('A' for Active; 'I' for Inactive)
REMARK    1  A    between atoms: C_2  and  C_3 
REMARK       I    between atoms: C_2  and  N_34 
REMARK    2  A    between atoms: N_6  and  C_7 
REMARK    3  A    between atoms: N_11  and  C_12 
REMARK    4  A    between atoms: C_12  and  C_13 
REMARK    5  A    between atoms: C_13  and  C_14 
ROOT
HETATM    1  C   UNK N   1      41.223  39.215  54.267  0.00  0.00     0.126 A 
HETATM    2  N   UNK N   1      40.726  38.782  53.096  0.00  0.00    -0.292 N 
ATOM      3  HN  UNK N   1      39.734  38.726  52.865  1.00  0.00     0.187 HD
HETATM    4  N   UNK N   1      41.717  38.439  52.287  0.00  0.00    -0.284 N 
HETATM    5  C   UNK N   1      42.907  38.612  52.941  0.00  0.00     0.074 A 
HETATM    6  C   UNK N   1      42.612  39.117  54.219  0.00  0.00     0.019 A 
HETATM    7  C   UNK N   1      43.621  39.521  55.267  0.00  0.00     0.191 C 
HETATM    8  S   UNK N   1      45.034  40.182  54.387  0.00  0.00     0.196 S 
HETATM    9  O   UNK N   1      44.793  41.633  53.942  0.00  0.00    -0.221 OA
HETATM   10  O   UNK N   1      46.264  40.292  55.301  0.00  0.00    -0.221 OA
HETATM   11  C   UNK N   1      45.382  39.158  52.990  0.00  0.00     0.141 A 
HETATM   12  N   UNK N   1      46.656  39.047  52.529  0.00  0.00    -0.356 N 
ATOM     13  HN  UNK N   1      47.399  39.580  52.981  1.00  0.00     0.166 HD
HETATM   14  C   UNK N   1      46.963  38.242  51.481  0.00  0.00     0.089 A 
HETATM   15  C   UNK N   1      45.966  37.496  50.862  0.00  0.00     0.018 A 
HETATM   16  C   UNK N   1      44.649  37.594  51.314  0.00  0.00     0.018 A 
HETATM   17  C   UNK N   1      44.319  38.443  52.391  0.00  0.00     0.031 A 
ENDROOT
BRANCH   4  18
HETATM   18  C   UNK N   1      41.474  38.183  50.851  0.00  0.00     0.137 C 
HETATM   19  C   UNK N   1      40.315  39.108  50.356  0.00  0.00     0.031 C 
HETATM   20  C   UNK N   1      38.992  38.341  50.415  0.00  0.00     0.032 C 
HETATM   21  C   UNK N   1      39.072  37.184  49.385  0.00  0.00     0.272 C 
HETATM   22  N   UNK N   1      40.439  36.597  49.284  0.00  0.00     0.090 N 
HETATM   23  C   UNK N   1      41.144  36.684  50.571  0.00  0.00     0.299 C 
BRANCH  22  24
HETATM   24  C   UNK N   1      40.452  35.233  48.727  0.00  0.00     0.273 C 
BRANCH  24  25
HETATM   25  C   UNK N   1      41.733  34.473  49.125  0.00  0.00     0.035 C 
BRANCH  25  26
HETATM   26  C   UNK N   1      42.237  33.545  48.003  0.00  0.00    -0.009 C 
HETATM   27  C   UNK N   1      42.254  34.237  46.615  0.00  0.00     0.031 C 
HETATM   28  C   UNK N   1      43.341  33.636  45.698  0.00  0.00     0.168 C 
HETATM   29  O   UNK N   1      43.449  32.241  45.878  0.00  0.00    -0.391 OA
HETATM   30  C   UNK N   1      43.913  31.912  47.192  0.00  0.00     0.168 C 
HETATM   31  C   UNK N   1      43.632  32.984  48.285  0.00  0.00     0.031 C 
ENDBRANCH  25  26
ENDBRANCH  24  25
ENDBRANCH  22  24
ENDBRANCH   4  18
BRANCH   1  32
HETATM   32  C   UNK N   1      40.381  39.847  55.339  0.00  0.00     0.272 C 
HETATM   33  O   UNK N   1      40.163  41.047  55.259  0.00  0.00    -0.266 OA
HETATM   34  N   UNK N   1      39.784  39.131  56.359  0.00  0.00    -0.343 N 
HETATM   35  C   UNK N   1      38.730  39.800  57.140  0.00  0.00     0.152 C 
HETATM   36  C   UNK N   1      40.069  37.707  56.559  0.00  0.00     0.152 C 
HETATM   37  C   UNK N   1      38.115  38.940  58.257  0.00  0.00     0.187 C 
HETATM   38  O   UNK N   1      38.086  37.575  57.900  0.00  0.00    -0.388 OA
HETATM   39  C   UNK N   1      39.430  37.150  57.826  0.00  0.00     0.187 C 
ENDBRANCH   1  32
TORSDOF 5
ENDMDL
MODEL 8
REMARK VINA RESULT:      -8.1      4.174      9.700
REMARK  5 active torsions:
REMARK  status: ('A' for Active; 'I' for Inactive)
REMARK    1  A    between atoms: C_2  and  C_3 
REMARK       I    between atoms: C_2  and  N_34 
REMARK    2  A    between atoms: N_6  and  C_7 
REMARK    3  A    between atoms: N_11  and  C_12 
REMARK    4  A    between atoms: C_12  and  C_13 
REMARK    5  A    between atoms: C_13  and  C_14 
ROOT
HETATM    1  C   UNK N   1      40.043  38.925  54.665  0.00  0.00     0.126 A 
HETATM    2  N   UNK N   1      40.229  38.780  53.342  0.00  0.00    -0.292 N 
ATOM      3  HN  UNK N   1      39.487  38.614  52.661  1.00  0.00     0.187 HD
HETATM    4  N   UNK N   1      41.517  38.883  53.056  0.00  0.00    -0.284 N 
HETATM    5  C   UNK N   1      42.219  39.067  54.216  0.00  0.00     0.074 A 
HETATM    6  C   UNK N   1      41.287  39.103  55.267  0.00  0.00     0.019 A 
HETATM    7  C   UNK N   1      41.601  39.352  56.723  0.00  0.00     0.191 C 
HETATM    8  S   UNK N   1      42.979  40.493  56.760  0.00  0.00     0.196 S 
HETATM    9  O   UNK N   1      42.520  41.941  56.527  0.00  0.00    -0.221 OA
HETATM   10  O   UNK N   1      43.627  40.547  58.152  0.00  0.00    -0.221 OA
HETATM   11  C   UNK N   1      44.163  40.017  55.537  0.00  0.00     0.141 A 
HETATM   12  N   UNK N   1      45.483  40.286  55.726  0.00  0.00    -0.356 N 
ATOM     13  HN  UNK N   1      45.774  40.786  56.566  1.00  0.00     0.166 HD
HETATM   14  C   UNK N   1      46.420  39.903  54.825  0.00  0.00     0.089 A 
HETATM   15  C   UNK N   1      46.043  39.207  53.682  0.00  0.00     0.018 A 
HETATM   16  C   UNK N   1      44.694  38.921  53.461  0.00  0.00     0.018 A 
HETATM   17  C   UNK N   1      43.711  39.332  54.385  0.00  0.00     0.031 A 
ENDROOT
BRANCH   4  18
HETATM   18  C   UNK N   1      41.977  39.030  51.658  0.00  0.00     0.137 C 
HETATM   19  C   UNK N   1      40.882  39.783  50.836  0.00  0.00     0.031 C 
HETATM   20  C   UNK N   1      39.988  38.763  50.125  0.00  0.00     0.032 C 
HETATM   21  C   UNK N   1      40.860  38.022  49.078  0.00  0.00     0.272 C 
HETATM   22  N   UNK N   1      42.262  37.809  49.543  0.00  0.00     0.090 N 
HETATM   23  C   UNK N   1      42.311  37.653  51.004  0.00  0.00     0.299 C 
BRANCH  22  24
HETATM   24  C   UNK N   1      42.954  36.717  48.837  0.00  0.00     0.273 C 
BRANCH  24  25
HETATM   25  C   UNK N   1      42.002  35.540  48.546  0.00  0.00     0.035 C 
BRANCH  25  26
HETATM   26  C   UNK N   1      42.515  34.636  47.410  0.00  0.00    -0.009 C 
HETATM   27  C   UNK N   1      43.608  33.641  47.883  0.00  0.00     0.031 C 
HETATM   28  C   UNK N   1      43.608  32.355  47.028  0.00  0.00     0.168 C 
HETATM   29  O   UNK N   1      43.345  32.642  45.672  0.00  0.00    -0.391 OA
HETATM   30  C   UNK N   1      42.021  33.154  45.488  0.00  0.00     0.168 C 
HETATM   31  C   UNK N   1      41.394  33.843  46.735  0.00  0.00     0.031 C 
ENDBRANCH  25  26
ENDBRANCH  24  25
ENDBRANCH  22  24
ENDBRANCH   4  18
BRANCH   1  32
HETATM   32  C   UNK N   1      38.686  39.041  55.302  0.00  0.00     0.272 C 
HETATM   33  O   UNK N   1      38.153  40.140  55.310  0.00  0.00    -0.266 OA
HETATM   34  N   UNK N   1      37.987  37.960  55.805  0.00  0.00    -0.343 N 
HETATM   35  C   UNK N   1      36.556  38.145  56.094  0.00  0.00     0.152 C 
HETATM   36  C   UNK N   1      38.600  36.632  55.899  0.00  0.00     0.152 C 
HETATM   37  C   UNK N   1      35.847  36.899  56.652  0.00  0.00     0.187 C 
HETATM   38  O   UNK N   1      36.398  35.713  56.123  0.00  0.00    -0.388 OA
HETATM   39  C   UNK N   1      37.715  35.623  56.622  0.00  0.00     0.187 C 
ENDBRANCH   1  32
TORSDOF 5
ENDMDL
MODEL 9
REMARK VINA RESULT:      -7.8      6.182      9.450
REMARK  5 active torsions:
REMARK  status: ('A' for Active; 'I' for Inactive)
REMARK    1  A    between atoms: C_2  and  C_3 
REMARK       I    between atoms: C_2  and  N_34 
REMARK    2  A    between atoms: N_6  and  C_7 
REMARK    3  A    between atoms: N_11  and  C_12 
REMARK    4  A    between atoms: C_12  and  C_13 
REMARK    5  A    between atoms: C_13  and  C_14 
ROOT
HETATM    1  C   UNK N   1      38.081  41.633  54.666  0.00  0.00     0.126 A 
HETATM    2  N   UNK N   1      39.287  41.116  54.377  0.00  0.00    -0.292 N 
ATOM      3  HN  UNK N   1      40.111  41.658  54.117  1.00  0.00     0.187 HD
HETATM    4  N   UNK N   1      39.245  39.796  54.480  0.00  0.00    -0.284 N 
HETATM    5  C   UNK N   1      37.974  39.415  54.811  0.00  0.00     0.074 A 
HETATM    6  C   UNK N   1      37.207  40.584  54.942  0.00  0.00     0.019 A 
HETATM    7  C   UNK N   1      35.758  40.653  55.361  0.00  0.00     0.191 C 
HETATM    8  S   UNK N   1      35.503  39.324  56.533  0.00  0.00     0.196 S 
HETATM    9  O   UNK N   1      36.011  39.701  57.934  0.00  0.00    -0.221 OA
HETATM   10  O   UNK N   1      34.008  39.054  56.761  0.00  0.00    -0.221 OA
HETATM   11  C   UNK N   1      36.320  37.868  55.952  0.00  0.00     0.141 A 
HETATM   12  N   UNK N   1      35.832  36.641  56.273  0.00  0.00    -0.356 N 
ATOM     13  HN  UNK N   1      35.010  36.571  56.872  1.00  0.00     0.166 HD
HETATM   14  C   UNK N   1      36.415  35.505  55.814  0.00  0.00     0.089 A 
HETATM   15  C   UNK N   1      37.528  35.581  54.984  0.00  0.00     0.018 A 
HETATM   16  C   UNK N   1      38.051  36.829  54.642  0.00  0.00     0.018 A 
HETATM   17  C   UNK N   1      37.462  38.014  55.130  0.00  0.00     0.031 A 
ENDROOT
BRANCH   4  18
HETATM   18  C   UNK N   1      40.487  38.992  54.478  0.00  0.00     0.137 C 
HETATM   19  C   UNK N   1      41.052  38.924  55.934  0.00  0.00     0.031 C 
HETATM   20  C   UNK N   1      42.109  40.016  56.121  0.00  0.00     0.032 C 
HETATM   21  C   UNK N   1      43.304  39.679  55.192  0.00  0.00     0.272 C 
HETATM   22  N   UNK N   1      42.876  39.064  53.902  0.00  0.00     0.090 N 
HETATM   23  C   UNK N   1      41.554  39.565  53.496  0.00  0.00     0.299 C 
BRANCH  22  24
HETATM   24  C   UNK N   1      43.879  39.190  52.831  0.00  0.00     0.273 C 
BRANCH  24  25
HETATM   25  C   UNK N   1      45.211  38.521  53.225  0.00  0.00     0.035 C 
BRANCH  25  26
HETATM   26  C   UNK N   1      45.911  37.856  52.024  0.00  0.00    -0.009 C 
HETATM   27  C   UNK N   1      45.111  38.008  50.704  0.00  0.00     0.031 C 
HETATM   28  C   UNK N   1      46.045  38.002  49.474  0.00  0.00     0.168 C 
HETATM   29  O   UNK N   1      47.108  37.091  49.643  0.00  0.00    -0.391 OA
HETATM   30  C   UNK N   1      47.978  37.487  50.710  0.00  0.00     0.168 C 
HETATM   31  C   UNK N   1      47.328  38.389  51.799  0.00  0.00     0.031 C 
ENDBRANCH  25  26
ENDBRANCH  24  25
ENDBRANCH  22  24
ENDBRANCH   4  18
BRANCH   1  32
HETATM   32  C   UNK N   1      37.830  43.107  54.819  0.00  0.00     0.272 C 
HETATM   33  O   UNK N   1      37.709  43.773  53.802  0.00  0.00    -0.266 OA
HETATM   34  N   UNK N   1      37.654  43.726  56.042  0.00  0.00    -0.343 N 
HETATM   35  C   UNK N   1      37.092  45.087  56.046  0.00  0.00     0.152 C 
HETATM   36  C   UNK N   1      37.865  43.004  57.300  0.00  0.00     0.152 C 
HETATM   37  C   UNK N   1      36.927  45.709  57.443  0.00  0.00     0.187 C 
HETATM   38  O   UNK N   1      36.626  44.729  58.412  0.00  0.00    -0.388 OA
HETATM   39  C   UNK N   1      37.769  43.908  58.523  0.00  0.00     0.187 C 
ENDBRANCH   1  32
TORSDOF 5
ENDMDL
