MODEL 1
REMARK VINA RESULT:      -8.4      0.000      0.000
REMARK  4 active torsions:
REMARK  status: ('A' for Active; 'I' for Inactive)
REMARK    1  A    between atoms: C_2  and  C_3 
REMARK       I    between atoms: C_2  and  N_31 
REMARK    2  A    between atoms: N_6  and  C_7 
REMARK    3  A    between atoms: N_10  and  C_11 
REMARK    4  A    between atoms: C_11  and  C_12 
ROOT
HETATM    1  C   UNK N   1      40.713  39.427  54.408  0.00  0.00     0.126 A 
HETATM    2  N   UNK N   1      40.211  38.985  53.246  0.00  0.00    -0.292 N 
ATOM      3  HN  UNK N   1      39.218  38.899  53.031  1.00  0.00     0.187 HD
HETATM    4  N   UNK N   1      41.196  38.675  52.420  0.00  0.00    -0.284 N 
HETATM    5  C   UNK N   1      42.387  38.871  53.054  0.00  0.00     0.072 A 
HETATM    6  C   UNK N   1      42.100  39.409  54.322  0.00  0.00     0.019 A 
HETATM    7  C   UNK N   1      43.080  39.867  55.369  0.00  0.00     0.189 C 
HETATM    8  S   UNK N   1      44.605  40.282  54.501  0.00  0.00     0.183 S 
HETATM    9  O   UNK N   1      45.801  40.324  55.463  0.00  0.00    -0.222 OA
HETATM   10  O   UNK N   1      44.539  41.732  53.994  0.00  0.00    -0.222 OA
HETATM   11  C   UNK N   1      44.898  39.197  53.128  0.00  0.00     0.110 A 
HETATM   12  C   UNK N   1      46.199  38.941  52.672  0.00  0.00     0.138 A 
HETATM   13  F   UNK N   1      47.266  39.566  53.230  0.00  0.00    -0.204 F 
HETATM   14  C   UNK N   1      46.406  38.022  51.643  0.00  0.00     0.044 A 
HETATM   15  C   UNK N   1      45.324  37.344  51.088  0.00  0.00     0.004 A 
HETATM   16  C   UNK N   1      44.025  37.605  51.531  0.00  0.00     0.015 A 
HETATM   17  C   UNK N   1      43.781  38.565  52.539  0.00  0.00     0.018 A 
ENDROOT
BRANCH   4  18
HETATM   18  C   UNK N   1      40.886  38.280  51.039  0.00  0.00     0.138 C 
HETATM   19  C   UNK N   1      40.896  39.476  50.071  0.00  0.00     0.059 C 
HETATM   20  C   UNK N   1      39.520  39.435  49.423  0.00  0.00     0.274 C 
HETATM   21  N   UNK N   1      39.086  38.034  49.533  0.00  0.00     0.091 N 
HETATM   22  C   UNK N   1      39.475  37.719  50.910  0.00  0.00     0.299 C 
BRANCH  21  23
HETATM   23  C   UNK N   1      37.630  37.876  49.346  0.00  0.00     0.279 C 
BRANCH  23  24
HETATM   24  C   UNK N   1      36.913  39.233  49.305  0.00  0.00     0.040 C 
HETATM   25  C   UNK N   1      36.073  39.467  48.088  0.00  0.00     0.035 C 
HETATM   26  C   UNK N   1      35.283  40.667  48.580  0.00  0.00     0.168 C 
HETATM   27  O   UNK N   1      34.995  40.449  49.951  0.00  0.00    -0.391 OA
HETATM   28  C   UNK N   1      35.837  39.390  50.368  0.00  0.00     0.173 C 
ENDBRANCH  23  24
ENDBRANCH  21  23
ENDBRANCH   4  18
BRANCH   1  29
HETATM   29  C   UNK N   1      39.865  39.749  55.599  0.00  0.00     0.272 C 
HETATM   30  O   UNK N   1      39.426  40.887  55.688  0.00  0.00    -0.266 OA
HETATM   31  N   UNK N   1      39.676  38.863  56.646  0.00  0.00    -0.343 N 
HETATM   32  C   UNK N   1      39.169  39.323  57.935  0.00  0.00     0.152 C 
HETATM   33  C   UNK N   1      39.961  37.432  56.563  0.00  0.00     0.152 C 
HETATM   34  C   UNK N   1      38.002  38.435  58.376  0.00  0.00     0.187 C 
HETATM   35  O   UNK N   1      38.396  37.074  58.386  0.00  0.00    -0.388 OA
HETATM   36  C   UNK N   1      38.729  36.668  57.069  0.00  0.00     0.187 C 
ENDBRANCH   1  29
TORSDOF 4
ENDMDL
MODEL 2
REMARK VINA RESULT:      -8.2      3.160      7.068
REMARK  4 active torsions:
REMARK  status: ('A' for Active; 'I' for Inactive)
REMARK    1  A    between atoms: C_2  and  C_3 
REMARK       I    between atoms: C_2  and  N_31 
REMARK    2  A    between atoms: N_6  and  C_7 
REMARK    3  A    between atoms: N_10  and  C_11 
REMARK    4  A    between atoms: C_11  and  C_12 
ROOT
HETATM    1  C   UNK N   1      39.429  38.370  50.951  0.00  0.00     0.126 A 
HETATM    2  N   UNK N   1      40.545  38.507  50.222  0.00  0.00    -0.292 N 
ATOM      3  HN  UNK N   1      40.626  38.292  49.228  1.00  0.00     0.187 HD
HETATM    4  N   UNK N   1      41.527  38.960  50.982  0.00  0.00    -0.284 N 
HETATM    5  C   UNK N   1      41.075  39.090  52.262  0.00  0.00     0.072 A 
HETATM    6  C   UNK N   1      39.706  38.765  52.256  0.00  0.00     0.019 A 
HETATM    7  C   UNK N   1      38.740  38.828  53.408  0.00  0.00     0.189 C 
HETATM    8  S   UNK N   1      39.410  40.027  54.576  0.00  0.00     0.183 S 
HETATM    9  O   UNK N   1      38.786  39.858  55.970  0.00  0.00    -0.222 OA
HETATM   10  O   UNK N   1      38.962  41.444  54.184  0.00  0.00    -0.222 OA
HETATM   11  C   UNK N   1      41.182  39.971  54.635  0.00  0.00     0.110 A 
HETATM   12  C   UNK N   1      41.882  40.352  55.789  0.00  0.00     0.138 A 
HETATM   13  F   UNK N   1      41.223  40.833  56.873  0.00  0.00    -0.204 F 
HETATM   14  C   UNK N   1      43.270  40.221  55.835  0.00  0.00     0.044 A 
HETATM   15  C   UNK N   1      43.955  39.691  54.745  0.00  0.00     0.004 A 
HETATM   16  C   UNK N   1      43.264  39.322  53.589  0.00  0.00     0.015 A 
HETATM   17  C   UNK N   1      41.863  39.487  53.496  0.00  0.00     0.018 A 
ENDROOT
BRANCH   4  18
HETATM   18  C   UNK N   1      42.818  39.304  50.371  0.00  0.00     0.138 C 
HETATM   19  C   UNK N   1      42.740  39.381  48.838  0.00  0.00     0.059 C 
HETATM   20  C   UNK N   1      43.810  38.408  48.365  0.00  0.00     0.274 C 
HETATM   21  N   UNK N   1      44.772  38.328  49.476  0.00  0.00     0.091 N 
HETATM   22  C   UNK N   1      43.872  38.232  50.628  0.00  0.00     0.299 C 
BRANCH  21  23
HETATM   23  C   UNK N   1      45.642  37.139  49.385  0.00  0.00     0.279 C 
BRANCH  23  24
HETATM   24  C   UNK N   1      47.057  37.431  49.907  0.00  0.00     0.040 C 
HETATM   25  C   UNK N   1      47.716  38.635  49.308  0.00  0.00     0.035 C 
HETATM   26  C   UNK N   1      48.854  38.793  50.300  0.00  0.00     0.168 C 
HETATM   27  O   UNK N   1      48.341  38.487  51.585  0.00  0.00    -0.391 OA
HETATM   28  C   UNK N   1      47.097  37.845  51.371  0.00  0.00     0.173 C 
ENDBRANCH  23  24
ENDBRANCH  21  23
ENDBRANCH   4  18
BRANCH   1  29
HETATM   29  C   UNK N   1      38.168  37.766  50.417  0.00  0.00     0.272 C 
HETATM   30  O   UNK N   1      37.230  38.519  50.198  0.00  0.00    -0.266 OA
HETATM   31  N   UNK N   1      37.986  36.399  50.292  0.00  0.00    -0.343 N 
HETATM   32  C   UNK N   1      36.650  35.832  50.130  0.00  0.00     0.152 C 
HETATM   33  C   UNK N   1      39.076  35.426  50.315  0.00  0.00     0.152 C 
HETATM   34  C   UNK N   1      36.642  34.867  48.940  0.00  0.00     0.187 C 
HETATM   35  O   UNK N   1      37.649  33.883  49.098  0.00  0.00    -0.388 OA
HETATM   36  C   UNK N   1      38.923  34.505  49.096  0.00  0.00     0.187 C 
ENDBRANCH   1  29
TORSDOF 4
ENDMDL
MODEL 3
REMARK VINA RESULT:      -8.0      5.397      8.099
REMARK  4 active torsions:
REMARK  status: ('A' for Active; 'I' for Inactive)
REMARK    1  A    between atoms: C_2  and  C_3 
REMARK       I    between atoms: C_2  and  N_31 
REMARK    2  A    between atoms: N_6  and  C_7 
REMARK    3  A    between atoms: N_10  and  C_11 
REMARK    4  A    between atoms: C_11  and  C_12 
ROOT
HETATM    1  C   UNK N   1      38.263  34.705  49.616  0.00  0.00     0.126 A 
HETATM    2  N   UNK N   1      39.272  34.298  48.832  0.00  0.00    -0.292 N 
ATOM      3  HN  UNK N   1      39.233  33.505  48.192  1.00  0.00     0.187 HD
HETATM    4  N   UNK N   1      40.325  35.076  49.013  0.00  0.00    -0.284 N 
HETATM    5  C   UNK N   1      40.034  36.002  49.972  0.00  0.00     0.072 A 
HETATM    6  C   UNK N   1      38.689  35.815  50.337  0.00  0.00     0.019 A 
HETATM    7  C   UNK N   1      37.876  36.635  51.303  0.00  0.00     0.189 C 
HETATM    8  S   UNK N   1      38.643  38.265  51.368  0.00  0.00     0.183 S 
HETATM    9  O   UNK N   1      38.208  39.037  52.622  0.00  0.00    -0.222 OA
HETATM   10  O   UNK N   1      38.097  39.145  50.233  0.00  0.00    -0.222 OA
HETATM   11  C   UNK N   1      40.410  38.167  51.232  0.00  0.00     0.110 A 
HETATM   12  C   UNK N   1      41.236  39.150  51.796  0.00  0.00     0.138 A 
HETATM   13  F   UNK N   1      40.703  40.237  52.408  0.00  0.00    -0.204 F 
HETATM   14  C   UNK N   1      42.622  39.006  51.744  0.00  0.00     0.044 A 
HETATM   15  C   UNK N   1      43.182  37.876  51.153  0.00  0.00     0.004 A 
HETATM   16  C   UNK N   1      42.364  36.901  50.580  0.00  0.00     0.015 A 
HETATM   17  C   UNK N   1      40.958  37.043  50.576  0.00  0.00     0.018 A 
ENDROOT
BRANCH   4  18
HETATM   18  C   UNK N   1      41.514  34.895  48.170  0.00  0.00     0.138 C 
HETATM   19  C   UNK N   1      41.173  34.296  46.795  0.00  0.00     0.059 C 
HETATM   20  C   UNK N   1      42.047  33.053  46.708  0.00  0.00     0.274 C 
HETATM   21  N   UNK N   1      43.177  33.316  47.612  0.00  0.00     0.091 N 
HETATM   22  C   UNK N   1      42.491  33.892  48.772  0.00  0.00     0.299 C 
BRANCH  21  23
HETATM   23  C   UNK N   1      43.902  32.086  47.985  0.00  0.00     0.279 C 
BRANCH  23  24
HETATM   24  C   UNK N   1      45.152  31.879  47.117  0.00  0.00     0.040 C 
HETATM   25  C   UNK N   1      45.356  32.906  46.047  0.00  0.00     0.035 C 
HETATM   26  C   UNK N   1      46.799  32.590  45.695  0.00  0.00     0.168 C 
HETATM   27  O   UNK N   1      47.470  32.279  46.904  0.00  0.00    -0.391 OA
HETATM   28  C   UNK N   1      46.460  32.063  47.873  0.00  0.00     0.173 C 
ENDBRANCH  23  24
ENDBRANCH  21  23
ENDBRANCH   4  18
BRANCH   1  29
HETATM   29  C   UNK N   1      36.968  33.965  49.737  0.00  0.00     0.272 C 
HETATM   30  O   UNK N   1      36.228  33.959  48.763  0.00  0.00    -0.266 OA
HETATM   31  N   UNK N   1      36.527  33.415  50.929  0.00  0.00    -0.343 N 
HETATM   32  C   UNK N   1      35.128  33.038  51.108  0.00  0.00     0.152 C 
HETATM   33  C   UNK N   1      37.391  33.173  52.082  0.00  0.00     0.152 C 
HETATM   34  C   UNK N   1      35.047  31.608  51.651  0.00  0.00     0.187 C 
HETATM   35  O   UNK N   1      35.814  31.486  52.836  0.00  0.00    -0.388 OA
HETATM   36  C   UNK N   1      37.180  31.723  52.542  0.00  0.00     0.187 C 
ENDBRANCH   1  29
TORSDOF 4
ENDMDL
MODEL 4
REMARK VINA RESULT:      -7.9      3.011      4.124
REMARK  4 active torsions:
REMARK  status: ('A' for Active; 'I' for Inactive)
REMARK    1  A    between atoms: C_2  and  C_3 
REMARK       I    between atoms: C_2  and  N_31 
REMARK    2  A    between atoms: N_6  and  C_7 
REMARK    3  A    between atoms: N_10  and  C_11 
REMARK    4  A    between atoms: C_11  and  C_12 
ROOT
HETATM    1  C   UNK N   1      41.376  38.996  54.099  0.00  0.00     0.126 A 
HETATM    2  N   UNK N   1      40.918  38.679  52.880  0.00  0.00    -0.292 N 
ATOM      3  HN  UNK N   1      39.934  38.574  52.633  1.00  0.00     0.187 HD
HETATM    4  N   UNK N   1      41.931  38.519  52.046  0.00  0.00    -0.284 N 
HETATM    5  C   UNK N   1      43.099  38.690  52.727  0.00  0.00     0.072 A 
HETATM    6  C   UNK N   1      42.764  39.052  54.045  0.00  0.00     0.019 A 
HETATM    7  C   UNK N   1      43.702  39.422  55.163  0.00  0.00     0.189 C 
HETATM    8  S   UNK N   1      45.219  40.012  54.390  0.00  0.00     0.183 S 
HETATM    9  O   UNK N   1      46.395  39.988  55.378  0.00  0.00    -0.222 OA
HETATM   10  O   UNK N   1      45.092  41.508  54.064  0.00  0.00    -0.222 OA
HETATM   11  C   UNK N   1      45.590  39.120  52.901  0.00  0.00     0.110 A 
HETATM   12  C   UNK N   1      46.910  38.982  52.447  0.00  0.00     0.138 A 
HETATM   13  F   UNK N   1      47.935  39.582  53.104  0.00  0.00    -0.204 F 
HETATM   14  C   UNK N   1      47.180  38.209  51.319  0.00  0.00     0.044 A 
HETATM   15  C   UNK N   1      46.142  37.556  50.659  0.00  0.00     0.004 A 
HETATM   16  C   UNK N   1      44.824  37.700  51.099  0.00  0.00     0.015 A 
HETATM   17  C   UNK N   1      44.516  38.515  52.212  0.00  0.00     0.018 A 
ENDROOT
BRANCH   4  18
HETATM   18  C   UNK N   1      41.666  38.286  50.619  0.00  0.00     0.138 C 
HETATM   19  C   UNK N   1      40.218  38.625  50.229  0.00  0.00     0.059 C 
HETATM   20  C   UNK N   1      39.697  37.342  49.598  0.00  0.00     0.274 C 
HETATM   21  N   UNK N   1      40.895  36.638  49.115  0.00  0.00     0.091 N 
HETATM   22  C   UNK N   1      41.808  36.814  50.248  0.00  0.00     0.299 C 
BRANCH  21  23
HETATM   23  C   UNK N   1      40.645  35.207  48.856  0.00  0.00     0.279 C 
BRANCH  23  24
HETATM   24  C   UNK N   1      41.772  34.575  48.025  0.00  0.00     0.040 C 
HETATM   25  C   UNK N   1      42.489  33.442  48.691  0.00  0.00     0.035 C 
HETATM   26  C   UNK N   1      43.210  32.881  47.478  0.00  0.00     0.168 C 
HETATM   27  O   UNK N   1      42.323  32.976  46.378  0.00  0.00    -0.391 OA
HETATM   28  C   UNK N   1      41.282  33.847  46.782  0.00  0.00     0.173 C 
ENDBRANCH  23  24
ENDBRANCH  21  23
ENDBRANCH   4  18
BRANCH   1  29
HETATM   29  C   UNK N   1      40.492  39.128  55.300  0.00  0.00     0.272 C 
HETATM   30  O   UNK N   1      40.810  38.509  56.306  0.00  0.00    -0.266 OA
HETATM   31  N   UNK N   1      39.282  39.802  55.270  0.00  0.00    -0.343 N 
HETATM   32  C   UNK N   1      38.287  39.602  56.318  0.00  0.00     0.152 C 
HETATM   33  C   UNK N   1      38.900  40.742  54.218  0.00  0.00     0.152 C 
HETATM   34  C   UNK N   1      37.816  40.960  56.846  0.00  0.00     0.187 C 
HETATM   35  O   UNK N   1      37.348  41.768  55.780  0.00  0.00    -0.388 OA
HETATM   36  C   UNK N   1      38.415  42.037  54.886  0.00  0.00     0.187 C 
ENDBRANCH   1  29
TORSDOF 4
ENDMDL
MODEL 5
REMARK VINA RESULT:      -7.9      3.646      5.922
REMARK  4 active torsions:
REMARK  status: ('A' for Active; 'I' for Inactive)
REMARK    1  A    between atoms: C_2  and  C_3 
REMARK       I    between atoms: C_2  and  N_31 
REMARK    2  A    between atoms: N_6  and  C_7 
REMARK    3  A    between atoms: N_10  and  C_11 
REMARK    4  A    between atoms: C_11  and  C_12 
ROOT
HETATM    1  C   UNK N   1      38.803  38.289  51.644  0.00  0.00     0.126 A 
HETATM    2  N   UNK N   1      39.859  38.231  50.821  0.00  0.00    -0.292 N 
ATOM      3  HN  UNK N   1      39.836  37.891  49.860  1.00  0.00     0.187 HD
HETATM    4  N   UNK N   1      40.938  38.679  51.441  0.00  0.00    -0.284 N 
HETATM    5  C   UNK N   1      40.610  39.006  52.723  0.00  0.00     0.072 A 
HETATM    6  C   UNK N   1      39.223  38.812  52.862  0.00  0.00     0.019 A 
HETATM    7  C   UNK N   1      38.370  39.105  54.066  0.00  0.00     0.189 C 
HETATM    8  S   UNK N   1      39.235  40.369  55.016  0.00  0.00     0.183 S 
HETATM    9  O   UNK N   1      38.722  40.429  56.463  0.00  0.00    -0.222 OA
HETATM   10  O   UNK N   1      38.876  41.763  54.480  0.00  0.00    -0.222 OA
HETATM   11  C   UNK N   1      40.996  40.154  54.949  0.00  0.00     0.110 A 
HETATM   12  C   UNK N   1      41.822  40.605  55.988  0.00  0.00     0.138 A 
HETATM   13  F   UNK N   1      41.301  41.274  57.047  0.00  0.00    -0.204 F 
HETATM   14  C   UNK N   1      43.193  40.351  55.946  0.00  0.00     0.044 A 
HETATM   15  C   UNK N   1      43.734  39.631  54.884  0.00  0.00     0.004 A 
HETATM   16  C   UNK N   1      42.918  39.191  53.840  0.00  0.00     0.015 A 
HETATM   17  C   UNK N   1      41.533  39.474  53.833  0.00  0.00     0.018 A 
ENDROOT
BRANCH   4  18
HETATM   18  C   UNK N   1      42.196  38.824  50.695  0.00  0.00     0.138 C 
HETATM   19  C   UNK N   1      41.963  39.090  49.199  0.00  0.00     0.059 C 
HETATM   20  C   UNK N   1      42.741  37.983  48.502  0.00  0.00     0.274 C 
HETATM   21  N   UNK N   1      43.781  37.584  49.463  0.00  0.00     0.091 N 
HETATM   22  C   UNK N   1      43.018  37.540  50.713  0.00  0.00     0.299 C 
BRANCH  21  23
HETATM   23  C   UNK N   1      44.361  36.263  49.152  0.00  0.00     0.279 C 
BRANCH  23  24
HETATM   24  C   UNK N   1      43.318  35.314  48.543  0.00  0.00     0.040 C 
HETATM   25  C   UNK N   1      43.878  34.239  47.664  0.00  0.00     0.035 C 
HETATM   26  C   UNK N   1      42.654  33.346  47.583  0.00  0.00     0.168 C 
HETATM   27  O   UNK N   1      42.040  33.354  48.860  0.00  0.00    -0.391 OA
HETATM   28  C   UNK N   1      42.615  34.438  49.568  0.00  0.00     0.173 C 
ENDBRANCH  23  24
ENDBRANCH  21  23
ENDBRANCH   4  18
BRANCH   1  29
HETATM   29  C   UNK N   1      37.454  37.746  51.288  0.00  0.00     0.272 C 
HETATM   30  O   UNK N   1      36.736  38.437  50.579  0.00  0.00    -0.266 OA
HETATM   31  N   UNK N   1      36.950  36.576  51.831  0.00  0.00    -0.343 N 
HETATM   32  C   UNK N   1      35.524  36.272  51.762  0.00  0.00     0.152 C 
HETATM   33  C   UNK N   1      37.770  35.572  52.506  0.00  0.00     0.152 C 
HETATM   34  C   UNK N   1      35.327  34.851  51.224  0.00  0.00     0.187 C 
HETATM   35  O   UNK N   1      36.058  33.923  52.007  0.00  0.00    -0.388 OA
HETATM   36  C   UNK N   1      37.444  34.200  51.898  0.00  0.00     0.187 C 
ENDBRANCH   1  29
TORSDOF 4
ENDMDL
MODEL 6
REMARK VINA RESULT:      -7.8      2.769      6.808
REMARK  4 active torsions:
REMARK  status: ('A' for Active; 'I' for Inactive)
REMARK    1  A    between atoms: C_2  and  C_3 
REMARK       I    between atoms: C_2  and  N_31 
REMARK    2  A    between atoms: N_6  and  C_7 
REMARK    3  A    between atoms: N_10  and  C_11 
REMARK    4  A    between atoms: C_11  and  C_12 
ROOT
HETATM    1  C   UNK N   1      40.719  38.816  51.875  0.00  0.00     0.126 A 
HETATM    2  N   UNK N   1      40.457  38.943  53.183  0.00  0.00    -0.292 N 
ATOM      3  HN  UNK N   1      39.523  38.986  53.592  1.00  0.00     0.187 HD
HETATM    4  N   UNK N   1      41.587  39.006  53.865  0.00  0.00    -0.284 N 
HETATM    5  C   UNK N   1      42.635  38.964  52.994  0.00  0.00     0.072 A 
HETATM    6  C   UNK N   1      42.099  38.788  51.705  0.00  0.00     0.019 A 
HETATM    7  C   UNK N   1      42.851  38.607  50.413  0.00  0.00     0.189 C 
HETATM    8  S   UNK N   1      44.472  37.950  50.848  0.00  0.00     0.183 S 
HETATM    9  O   UNK N   1      45.479  38.145  49.704  0.00  0.00    -0.222 OA
HETATM   10  O   UNK N   1      44.401  36.420  50.968  0.00  0.00    -0.222 OA
HETATM   11  C   UNK N   1      45.069  38.627  52.376  0.00  0.00     0.110 A 
HETATM   12  C   UNK N   1      46.444  38.731  52.635  0.00  0.00     0.138 A 
HETATM   13  F   UNK N   1      47.354  38.259  51.748  0.00  0.00    -0.204 F 
HETATM   14  C   UNK N   1      46.885  39.341  53.809  0.00  0.00     0.044 A 
HETATM   15  C   UNK N   1      45.962  39.865  54.710  0.00  0.00     0.004 A 
HETATM   16  C   UNK N   1      44.592  39.753  54.463  0.00  0.00     0.015 A 
HETATM   17  C   UNK N   1      44.115  39.099  53.304  0.00  0.00     0.018 A 
ENDROOT
BRANCH   4  18
HETATM   18  C   UNK N   1      41.549  39.025  55.334  0.00  0.00     0.138 C 
HETATM   19  C   UNK N   1      40.413  38.157  55.902  0.00  0.00     0.059 C 
HETATM   20  C   UNK N   1      39.621  39.115  56.779  0.00  0.00     0.274 C 
HETATM   21  N   UNK N   1      40.577  40.169  57.155  0.00  0.00     0.091 N 
HETATM   22  C   UNK N   1      41.248  40.418  55.877  0.00  0.00     0.299 C 
BRANCH  21  23
HETATM   23  C   UNK N   1      39.908  41.390  57.646  0.00  0.00     0.279 C 
BRANCH  23  24
HETATM   24  C   UNK N   1      40.450  41.821  59.017  0.00  0.00     0.040 C 
HETATM   25  C   UNK N   1      39.621  41.391  60.188  0.00  0.00     0.035 C 
HETATM   26  C   UNK N   1      40.628  41.655  61.293  0.00  0.00     0.168 C 
HETATM   27  O   UNK N   1      41.904  41.285  60.799  0.00  0.00    -0.391 OA
HETATM   28  C   UNK N   1      41.761  41.149  59.397  0.00  0.00     0.173 C 
ENDBRANCH  23  24
ENDBRANCH  21  23
ENDBRANCH   4  18
BRANCH   1  29
HETATM   29  C   UNK N   1      39.659  38.836  50.819  0.00  0.00     0.272 C 
HETATM   30  O   UNK N   1      39.701  39.737  49.993  0.00  0.00    -0.266 OA
HETATM   31  N   UNK N   1      38.578  37.970  50.825  0.00  0.00    -0.343 N 
HETATM   32  C   UNK N   1      37.391  38.247  50.022  0.00  0.00     0.152 C 
HETATM   33  C   UNK N   1      38.524  36.741  51.614  0.00  0.00     0.152 C 
HETATM   34  C   UNK N   1      37.022  37.005  49.205  0.00  0.00     0.187 C 
HETATM   35  O   UNK N   1      36.869  35.883  50.057  0.00  0.00    -0.388 OA
HETATM   36  C   UNK N   1      38.107  35.593  50.683  0.00  0.00     0.187 C 
ENDBRANCH   1  29
TORSDOF 4
ENDMDL
MODEL 7
REMARK VINA RESULT:      -7.7      2.905      5.945
REMARK  4 active torsions:
REMARK  status: ('A' for Active; 'I' for Inactive)
REMARK    1  A    between atoms: C_2  and  C_3 
REMARK       I    between atoms: C_2  and  N_31 
REMARK    2  A    between atoms: N_6  and  C_7 
REMARK    3  A    between atoms: N_10  and  C_11 
REMARK    4  A    between atoms: C_11  and  C_12 
ROOT
HETATM    1  C   UNK N   1      40.230  38.835  51.863  0.00  0.00     0.126 A 
HETATM    2  N   UNK N   1      39.883  39.268  53.083  0.00  0.00    -0.292 N 
ATOM      3  HN  UNK N   1      38.926  39.433  53.396  1.00  0.00     0.187 HD
HETATM    4  N   UNK N   1      40.964  39.452  53.820  0.00  0.00    -0.284 N 
HETATM    5  C   UNK N   1      42.068  39.179  53.067  0.00  0.00     0.072 A 
HETATM    6  C   UNK N   1      41.616  38.726  51.814  0.00  0.00     0.019 A 
HETATM    7  C   UNK N   1      42.446  38.228  50.662  0.00  0.00     0.189 C 
HETATM    8  S   UNK N   1      44.000  37.641  51.362  0.00  0.00     0.183 S 
HETATM    9  O   UNK N   1      45.092  37.536  50.288  0.00  0.00    -0.222 OA
HETATM   10  O   UNK N   1      43.847  36.182  51.821  0.00  0.00    -0.222 OA
HETATM   11  C   UNK N   1      44.520  38.633  52.738  0.00  0.00     0.110 A 
HETATM   12  C   UNK N   1      45.876  38.753  53.075  0.00  0.00     0.138 A 
HETATM   13  F   UNK N   1      46.823  38.061  52.394  0.00  0.00    -0.204 F 
HETATM   14  C   UNK N   1      46.262  39.603  54.111  0.00  0.00     0.044 A 
HETATM   15  C   UNK N   1      45.305  40.349  54.792  0.00  0.00     0.004 A 
HETATM   16  C   UNK N   1      43.952  40.225  54.468  0.00  0.00     0.015 A 
HETATM   17  C   UNK N   1      43.526  39.336  53.455  0.00  0.00     0.018 A 
ENDROOT
BRANCH   4  18
HETATM   18  C   UNK N   1      40.823  39.811  55.238  0.00  0.00     0.138 C 
HETATM   19  C   UNK N   1      40.405  38.614  56.107  0.00  0.00     0.059 C 
HETATM   20  C   UNK N   1      39.138  39.089  56.804  0.00  0.00     0.274 C 
HETATM   21  N   UNK N   1      39.239  40.557  56.820  0.00  0.00     0.091 N 
HETATM   22  C   UNK N   1      39.709  40.828  55.459  0.00  0.00     0.299 C 
BRANCH  21  23
HETATM   23  C   UNK N   1      37.939  41.210  57.069  0.00  0.00     0.279 C 
BRANCH  23  24
HETATM   24  C   UNK N   1      37.973  42.700  56.699  0.00  0.00     0.040 C 
HETATM   25  C   UNK N   1      36.863  43.154  55.801  0.00  0.00     0.035 C 
HETATM   26  C   UNK N   1      37.022  44.653  55.978  0.00  0.00     0.168 C 
HETATM   27  O   UNK N   1      37.348  44.886  57.337  0.00  0.00    -0.391 OA
HETATM   28  C   UNK N   1      37.719  43.630  57.876  0.00  0.00     0.173 C 
ENDBRANCH  23  24
ENDBRANCH  21  23
ENDBRANCH   4  18
BRANCH   1  29
HETATM   29  C   UNK N   1      39.248  38.643  50.750  0.00  0.00     0.272 C 
HETATM   30  O   UNK N   1      39.215  39.496  49.873  0.00  0.00    -0.266 OA
HETATM   31  N   UNK N   1      38.305  37.629  50.748  0.00  0.00    -0.343 N 
HETATM   32  C   UNK N   1      37.145  37.686  49.863  0.00  0.00     0.152 C 
HETATM   33  C   UNK N   1      38.377  36.449  51.606  0.00  0.00     0.152 C 
HETATM   34  C   UNK N   1      37.012  36.362  49.105  0.00  0.00     0.187 C 
HETATM   35  O   UNK N   1      36.967  35.276  50.013  0.00  0.00    -0.388 OA
HETATM   36  C   UNK N   1      38.191  35.204  50.726  0.00  0.00     0.187 C 
ENDBRANCH   1  29
TORSDOF 4
ENDMDL
MODEL 8
REMARK VINA RESULT:      -7.7      3.217      6.477
REMARK  4 active torsions:
REMARK  status: ('A' for Active; 'I' for Inactive)
REMARK    1  A    between atoms: C_2  and  C_3 
REMARK       I    between atoms: C_2  and  N_31 
REMARK    2  A    between atoms: N_6  and  C_7 
REMARK    3  A    between atoms: N_10  and  C_11 
REMARK    4  A    between atoms: C_11  and  C_12 
ROOT
HETATM    1  C   UNK N   1      38.936  38.157  54.033  0.00  0.00     0.126 A 
HETATM    2  N   UNK N   1      39.758  38.426  53.009  0.00  0.00    -0.292 N 
ATOM      3  HN  UNK N   1      39.572  38.198  52.032  1.00  0.00     0.187 HD
HETATM    4  N   UNK N   1      40.847  39.031  53.452  0.00  0.00    -0.284 N 
HETATM    5  C   UNK N   1      40.778  39.132  54.810  0.00  0.00     0.072 A 
HETATM    6  C   UNK N   1      39.527  38.622  55.203  0.00  0.00     0.019 A 
HETATM    7  C   UNK N   1      38.944  38.582  56.590  0.00  0.00     0.189 C 
HETATM    8  S   UNK N   1      39.754  39.893  57.526  0.00  0.00     0.183 S 
HETATM    9  O   UNK N   1      39.597  39.678  59.039  0.00  0.00    -0.222 OA
HETATM   10  O   UNK N   1      39.017  41.224  57.305  0.00  0.00    -0.222 OA
HETATM   11  C   UNK N   1      41.455  40.084  57.058  0.00  0.00     0.110 A 
HETATM   12  C   UNK N   1      42.403  40.589  57.960  0.00  0.00     0.138 A 
HETATM   13  F   UNK N   1      42.031  41.004  59.196  0.00  0.00    -0.204 F 
HETATM   14  C   UNK N   1      43.747  40.652  57.592  0.00  0.00     0.044 A 
HETATM   15  C   UNK N   1      44.147  40.192  56.340  0.00  0.00     0.004 A 
HETATM   16  C   UNK N   1      43.206  39.700  55.434  0.00  0.00     0.015 A 
HETATM   17  C   UNK N   1      41.831  39.668  55.762  0.00  0.00     0.018 A 
ENDROOT
BRANCH   4  18
HETATM   18  C   UNK N   1      41.840  39.533  52.492  0.00  0.00     0.138 C 
HETATM   19  C   UNK N   1      41.252  39.717  51.083  0.00  0.00     0.059 C 
HETATM   20  C   UNK N   1      42.161  38.882  50.193  0.00  0.00     0.274 C 
HETATM   21  N   UNK N   1      43.439  38.804  50.917  0.00  0.00     0.091 N 
HETATM   22  C   UNK N   1      42.980  38.543  52.284  0.00  0.00     0.299 C 
BRANCH  21  23
HETATM   23  C   UNK N   1      44.299  37.707  50.430  0.00  0.00     0.279 C 
BRANCH  23  24
HETATM   24  C   UNK N   1      45.773  38.131  50.359  0.00  0.00     0.040 C 
HETATM   25  C   UNK N   1      46.491  38.145  51.674  0.00  0.00     0.035 C 
HETATM   26  C   UNK N   1      47.916  38.231  51.158  0.00  0.00     0.168 C 
HETATM   27  O   UNK N   1      47.996  37.418  49.999  0.00  0.00    -0.391 OA
HETATM   28  C   UNK N   1      46.660  37.143  49.617  0.00  0.00     0.173 C 
ENDBRANCH  23  24
ENDBRANCH  21  23
ENDBRANCH   4  18
BRANCH   1  29
HETATM   29  C   UNK N   1      37.671  37.370  53.885  0.00  0.00     0.272 C 
HETATM   30  O   UNK N   1      37.693  36.196  54.228  0.00  0.00    -0.266 OA
HETATM   31  N   UNK N   1      36.542  37.877  53.262  0.00  0.00    -0.343 N 
HETATM   32  C   UNK N   1      35.477  36.989  52.805  0.00  0.00     0.152 C 
HETATM   33  C   UNK N   1      36.321  39.298  53.009  0.00  0.00     0.152 C 
HETATM   34  C   UNK N   1      34.127  37.504  53.313  0.00  0.00     0.187 C 
HETATM   35  O   UNK N   1      33.935  38.852  52.922  0.00  0.00    -0.388 OA
HETATM   36  C   UNK N   1      34.924  39.666  53.529  0.00  0.00     0.187 C 
ENDBRANCH   1  29
TORSDOF 4
ENDMDL
MODEL 9
REMARK VINA RESULT:      -7.6      1.881      2.616
REMARK  4 active torsions:
REMARK  status: ('A' for Active; 'I' for Inactive)
REMARK    1  A    between atoms: C_2  and  C_3 
REMARK       I    between atoms: C_2  and  N_31 
REMARK    2  A    between atoms: N_6  and  C_7 
REMARK    3  A    between atoms: N_10  and  C_11 
REMARK    4  A    between atoms: C_11  and  C_12 
ROOT
HETATM    1  C   UNK N   1      41.086  39.180  54.464  0.00  0.00     0.126 A 
HETATM    2  N   UNK N   1      40.551  38.788  53.300  0.00  0.00    -0.292 N 
ATOM      3  HN  UNK N   1      39.553  38.684  53.118  1.00  0.00     0.187 HD
HETATM    4  N   UNK N   1      41.510  38.553  52.420  0.00  0.00    -0.284 N 
HETATM    5  C   UNK N   1      42.720  38.749  53.018  0.00  0.00     0.072 A 
HETATM    6  C   UNK N   1      42.469  39.207  54.325  0.00  0.00     0.019 A 
HETATM    7  C   UNK N   1      43.477  39.637  55.357  0.00  0.00     0.189 C 
HETATM    8  S   UNK N   1      44.954  40.144  54.457  0.00  0.00     0.183 S 
HETATM    9  O   UNK N   1      46.186  40.168  55.373  0.00  0.00    -0.222 OA
HETATM   10  O   UNK N   1      44.828  41.617  54.035  0.00  0.00    -0.222 OA
HETATM   11  C   UNK N   1      45.222  39.145  53.015  0.00  0.00     0.110 A 
HETATM   12  C   UNK N   1      46.511  38.953  52.496  0.00  0.00     0.138 A 
HETATM   13  F   UNK N   1      47.581  39.577  53.047  0.00  0.00    -0.204 F 
HETATM   14  C   UNK N   1      46.701  38.098  51.410  0.00  0.00     0.044 A 
HETATM   15  C   UNK N   1      45.617  37.420  50.860  0.00  0.00     0.004 A 
HETATM   16  C   UNK N   1      44.330  37.617  51.365  0.00  0.00     0.015 A 
HETATM   17  C   UNK N   1      44.100  38.514  52.434  0.00  0.00     0.018 A 
ENDROOT
BRANCH   4  18
HETATM   18  C   UNK N   1      41.157  38.225  51.032  0.00  0.00     0.138 C 
HETATM   19  C   UNK N   1      40.991  39.480  50.158  0.00  0.00     0.059 C 
HETATM   20  C   UNK N   1      39.589  39.345  49.583  0.00  0.00     0.274 C 
HETATM   21  N   UNK N   1      39.301  37.902  49.610  0.00  0.00     0.091 N 
HETATM   22  C   UNK N   1      39.801  37.534  50.937  0.00  0.00     0.299 C 
BRANCH  21  23
HETATM   23  C   UNK N   1      37.859  37.611  49.490  0.00  0.00     0.279 C 
BRANCH  23  24
HETATM   24  C   UNK N   1      37.493  36.276  50.156  0.00  0.00     0.040 C 
HETATM   25  C   UNK N   1      36.353  36.346  51.125  0.00  0.00     0.035 C 
HETATM   26  C   UNK N   1      36.073  34.859  51.258  0.00  0.00     0.168 C 
HETATM   27  O   UNK N   1      36.243  34.281  49.975  0.00  0.00    -0.391 OA
HETATM   28  C   UNK N   1      36.922  35.247  49.193  0.00  0.00     0.173 C 
ENDBRANCH  23  24
ENDBRANCH  21  23
ENDBRANCH   4  18
BRANCH   1  29
HETATM   29  C   UNK N   1      40.277  39.411  55.702  0.00  0.00     0.272 C 
HETATM   30  O   UNK N   1      40.662  38.880  56.735  0.00  0.00    -0.266 OA
HETATM   31  N   UNK N   1      39.063  40.076  55.691  0.00  0.00    -0.343 N 
HETATM   32  C   UNK N   1      38.136  39.963  56.813  0.00  0.00     0.152 C 
HETATM   33  C   UNK N   1      38.608  40.923  54.590  0.00  0.00     0.152 C 
HETATM   34  C   UNK N   1      37.688  41.360  57.253  0.00  0.00     0.187 C 
HETATM   35  O   UNK N   1      37.147  42.072  56.154  0.00  0.00    -0.388 OA
HETATM   36  C   UNK N   1      38.155  42.268  55.176  0.00  0.00     0.187 C 
ENDBRANCH   1  29
TORSDOF 4
ENDMDL
