MODEL 1
REMARK VINA RESULT:      -9.2      0.000      0.000
REMARK  5 active torsions:
REMARK  status: ('A' for Active; 'I' for Inactive)
REMARK    1  A    between atoms: C_2  and  C_3 
REMARK       I    between atoms: C_2  and  N_33 
REMARK    2  A    between atoms: N_6  and  C_7 
REMARK    3  A    between atoms: N_11  and  C_12 
REMARK    4  A    between atoms: C_12  and  C_13 
REMARK    5  A    between atoms: C_13  and  C_14 
ROOT
HETATM    1  C   UNK N   1      40.338  38.527  49.691  0.00  0.00     0.126 A 
HETATM    2  N   UNK N   1      40.893  37.479  49.045  0.00  0.00    -0.292 N 
ATOM      3  HN  UNK N   1      40.425  36.904  48.344  1.00  0.00     0.187 HD
HETATM    4  N   UNK N   1      42.142  37.314  49.464  0.00  0.00    -0.284 N 
HETATM    5  C   UNK N   1      42.414  38.257  50.417  0.00  0.00     0.072 A 
HETATM    6  C   UNK N   1      41.276  39.058  50.559  0.00  0.00     0.019 A 
HETATM    7  C   UNK N   1      41.103  40.196  51.530  0.00  0.00     0.189 C 
HETATM    8  S   UNK N   1      41.968  39.695  53.017  0.00  0.00     0.180 S 
HETATM    9  O   UNK N   1      42.130  40.865  53.999  0.00  0.00    -0.222 OA
HETATM   10  O   UNK N   1      41.150  38.668  53.816  0.00  0.00    -0.222 OA
HETATM   11  C   UNK N   1      43.540  39.009  52.554  0.00  0.00     0.072 A 
HETATM   12  C   UNK N   1      44.640  39.106  53.411  0.00  0.00     0.024 A 
HETATM   13  C   UNK N   1      45.874  38.589  53.020  0.00  0.00     0.002 A 
HETATM   14  C   UNK N   1      46.013  37.989  51.769  0.00  0.00     0.001 A 
HETATM   15  C   UNK N   1      44.916  37.883  50.909  0.00  0.00     0.015 A 
HETATM   16  C   UNK N   1      43.652  38.379  51.288  0.00  0.00     0.014 A 
ENDROOT
BRANCH   4  17
HETATM   17  C   UNK N   1      42.954  36.125  49.114  0.00  0.00     0.137 C 
HETATM   18  C   UNK N   1      42.543  34.862  49.883  0.00  0.00     0.031 C 
HETATM   19  C   UNK N   1      41.185  34.289  49.424  0.00  0.00     0.032 C 
HETATM   20  C   UNK N   1      40.898  34.583  47.932  0.00  0.00     0.272 C 
HETATM   21  N   UNK N   1      42.132  34.681  47.136  0.00  0.00     0.090 N 
HETATM   22  C   UNK N   1      42.980  35.826  47.578  0.00  0.00     0.299 C 
BRANCH  21  23
HETATM   23  C   UNK N   1      42.846  33.386  46.986  0.00  0.00     0.273 C 
BRANCH  23  24
HETATM   24  C   UNK N   1      43.923  33.454  45.889  0.00  0.00     0.035 C 
BRANCH  24  25
HETATM   25  C   UNK N   1      45.356  33.169  46.395  0.00  0.00    -0.009 C 
HETATM   26  C   UNK N   1      46.347  32.770  45.269  0.00  0.00     0.031 C 
HETATM   27  C   UNK N   1      47.476  31.860  45.799  0.00  0.00     0.168 C 
HETATM   28  O   UNK N   1      47.880  32.247  47.092  0.00  0.00    -0.391 OA
HETATM   29  C   UNK N   1      46.834  32.048  48.049  0.00  0.00     0.168 C 
HETATM   30  C   UNK N   1      45.388  32.078  47.471  0.00  0.00     0.031 C 
ENDBRANCH  24  25
ENDBRANCH  23  24
ENDBRANCH  21  23
ENDBRANCH   4  17
BRANCH   1  31
HETATM   31  C   UNK N   1      38.951  39.044  49.457  0.00  0.00     0.272 C 
HETATM   32  O   UNK N   1      38.826  39.984  48.684  0.00  0.00    -0.266 OA
HETATM   33  N   UNK N   1      37.823  38.497  50.036  0.00  0.00    -0.343 N 
HETATM   34  C   UNK N   1      37.863  37.522  51.120  0.00  0.00     0.152 C 
HETATM   35  C   UNK N   1      36.488  38.939  49.645  0.00  0.00     0.152 C 
HETATM   36  C   UNK N   1      37.033  38.078  52.287  0.00  0.00     0.187 C 
HETATM   37  O   UNK N   1      35.711  38.371  51.868  0.00  0.00    -0.388 OA
HETATM   38  C   UNK N   1      35.737  39.405  50.898  0.00  0.00     0.187 C 
ENDBRANCH   1  31
TORSDOF 5
ENDMDL
MODEL 2
REMARK VINA RESULT:      -8.8      1.871      2.462
REMARK  5 active torsions:
REMARK  status: ('A' for Active; 'I' for Inactive)
REMARK    1  A    between atoms: C_2  and  C_3 
REMARK       I    between atoms: C_2  and  N_33 
REMARK    2  A    between atoms: N_6  and  C_7 
REMARK    3  A    between atoms: N_11  and  C_12 
REMARK    4  A    between atoms: C_12  and  C_13 
REMARK    5  A    between atoms: C_13  and  C_14 
ROOT
HETATM    1  C   UNK N   1      40.432  38.503  49.817  0.00  0.00     0.126 A 
HETATM    2  N   UNK N   1      41.030  37.467  49.189  0.00  0.00    -0.292 N 
ATOM      3  HN  UNK N   1      40.597  36.882  48.475  1.00  0.00     0.187 HD
HETATM    4  N   UNK N   1      42.269  37.331  49.648  0.00  0.00    -0.284 N 
HETATM    5  C   UNK N   1      42.490  38.280  50.607  0.00  0.00     0.072 A 
HETATM    6  C   UNK N   1      41.330  39.056  50.713  0.00  0.00     0.019 A 
HETATM    7  C   UNK N   1      41.102  40.190  51.677  0.00  0.00     0.189 C 
HETATM    8  S   UNK N   1      41.931  39.708  53.190  0.00  0.00     0.180 S 
HETATM    9  O   UNK N   1      42.036  40.883  54.175  0.00  0.00    -0.222 OA
HETATM   10  O   UNK N   1      41.112  38.664  53.965  0.00  0.00    -0.222 OA
HETATM   11  C   UNK N   1      43.532  39.058  52.776  0.00  0.00     0.072 A 
HETATM   12  C   UNK N   1      44.602  39.180  53.667  0.00  0.00     0.024 A 
HETATM   13  C   UNK N   1      45.859  38.691  53.315  0.00  0.00     0.002 A 
HETATM   14  C   UNK N   1      46.050  38.093  52.070  0.00  0.00     0.001 A 
HETATM   15  C   UNK N   1      44.983  37.962  51.177  0.00  0.00     0.015 A 
HETATM   16  C   UNK N   1      43.697  38.430  51.516  0.00  0.00     0.014 A 
ENDROOT
BRANCH   4  17
HETATM   17  C   UNK N   1      43.117  36.160  49.324  0.00  0.00     0.137 C 
HETATM   18  C   UNK N   1      42.610  34.853  49.948  0.00  0.00     0.031 C 
HETATM   19  C   UNK N   1      41.322  34.324  49.282  0.00  0.00     0.032 C 
HETATM   20  C   UNK N   1      41.227  34.719  47.790  0.00  0.00     0.272 C 
HETATM   21  N   UNK N   1      42.552  34.859  47.165  0.00  0.00     0.090 N 
HETATM   22  C   UNK N   1      43.338  35.963  47.787  0.00  0.00     0.299 C 
BRANCH  21  23
HETATM   23  C   UNK N   1      43.278  33.570  47.020  0.00  0.00     0.273 C 
BRANCH  23  24
HETATM   24  C   UNK N   1      43.600  33.261  45.548  0.00  0.00     0.035 C 
BRANCH  24  25
HETATM   25  C   UNK N   1      42.525  32.408  44.834  0.00  0.00    -0.009 C 
HETATM   26  C   UNK N   1      43.095  31.498  43.714  0.00  0.00     0.031 C 
HETATM   27  C   UNK N   1      42.047  31.223  42.614  0.00  0.00     0.168 C 
HETATM   28  O   UNK N   1      40.758  31.070  43.163  0.00  0.00    -0.391 OA
HETATM   29  C   UNK N   1      40.292  32.290  43.751  0.00  0.00     0.168 C 
HETATM   30  C   UNK N   1      41.406  33.265  44.233  0.00  0.00     0.031 C 
ENDBRANCH  24  25
ENDBRANCH  23  24
ENDBRANCH  21  23
ENDBRANCH   4  17
BRANCH   1  31
HETATM   31  C   UNK N   1      39.041  38.988  49.540  0.00  0.00     0.272 C 
HETATM   32  O   UNK N   1      38.917  39.911  48.746  0.00  0.00    -0.266 OA
HETATM   33  N   UNK N   1      37.909  38.431  50.102  0.00  0.00    -0.343 N 
HETATM   34  C   UNK N   1      37.942  37.478  51.205  0.00  0.00     0.152 C 
HETATM   35  C   UNK N   1      36.576  38.839  49.671  0.00  0.00     0.152 C 
HETATM   36  C   UNK N   1      37.073  38.039  52.341  0.00  0.00     0.187 C 
HETATM   37  O   UNK N   1      35.756  38.299  51.885  0.00  0.00    -0.388 OA
HETATM   38  C   UNK N   1      35.786  39.315  50.895  0.00  0.00     0.187 C 
ENDBRANCH   1  31
TORSDOF 5
ENDMDL
MODEL 3
REMARK VINA RESULT:      -8.4      3.685      6.709
REMARK  5 active torsions:
REMARK  status: ('A' for Active; 'I' for Inactive)
REMARK    1  A    between atoms: C_2  and  C_3 
REMARK       I    between atoms: C_2  and  N_33 
REMARK    2  A    between atoms: N_6  and  C_7 
REMARK    3  A    between atoms: N_11  and  C_12 
REMARK    4  A    between atoms: C_12  and  C_13 
REMARK    5  A    between atoms: C_13  and  C_14 
ROOT
HETATM    1  C   UNK N   1      37.892  36.608  52.989  0.00  0.00     0.126 A 
HETATM    2  N   UNK N   1      38.920  36.513  52.118  0.00  0.00    -0.292 N 
ATOM      3  HN  UNK N   1      39.800  36.028  52.295  1.00  0.00     0.187 HD
HETATM    4  N   UNK N   1      38.605  37.148  50.995  0.00  0.00    -0.284 N 
HETATM    5  C   UNK N   1      37.356  37.688  51.130  0.00  0.00     0.072 A 
HETATM    6  C   UNK N   1      36.874  37.332  52.395  0.00  0.00     0.019 A 
HETATM    7  C   UNK N   1      35.556  37.745  52.994  0.00  0.00     0.189 C 
HETATM    8  S   UNK N   1      35.276  39.423  52.430  0.00  0.00     0.180 S 
HETATM    9  O   UNK N   1      33.840  39.884  52.719  0.00  0.00    -0.222 OA
HETATM   10  O   UNK N   1      36.138  40.424  53.216  0.00  0.00    -0.222 OA
HETATM   11  C   UNK N   1      35.654  39.508  50.696  0.00  0.00     0.072 A 
HETATM   12  C   UNK N   1      34.990  40.416  49.866  0.00  0.00     0.024 A 
HETATM   13  C   UNK N   1      35.276  40.450  48.502  0.00  0.00     0.002 A 
HETATM   14  C   UNK N   1      36.213  39.568  47.966  0.00  0.00     0.001 A 
HETATM   15  C   UNK N   1      36.886  38.661  48.791  0.00  0.00     0.015 A 
HETATM   16  C   UNK N   1      36.630  38.620  50.177  0.00  0.00     0.014 A 
ENDROOT
BRANCH   4  17
HETATM   17  C   UNK N   1      39.592  37.415  49.924  0.00  0.00     0.137 C 
HETATM   18  C   UNK N   1      40.002  38.891  49.831  0.00  0.00     0.031 C 
HETATM   19  C   UNK N   1      40.894  39.346  51.007  0.00  0.00     0.032 C 
HETATM   20  C   UNK N   1      41.757  38.193  51.570  0.00  0.00     0.272 C 
HETATM   21  N   UNK N   1      42.091  37.193  50.542  0.00  0.00     0.090 N 
HETATM   22  C   UNK N   1      40.869  36.515  50.020  0.00  0.00     0.299 C 
BRANCH  21  23
HETATM   23  C   UNK N   1      43.026  37.700  49.504  0.00  0.00     0.273 C 
BRANCH  23  24
HETATM   24  C   UNK N   1      44.081  38.646  50.102  0.00  0.00     0.035 C 
BRANCH  24  25
HETATM   25  C   UNK N   1      45.416  37.954  50.461  0.00  0.00    -0.009 C 
HETATM   26  C   UNK N   1      45.959  38.336  51.864  0.00  0.00     0.031 C 
HETATM   27  C   UNK N   1      47.498  38.239  51.926  0.00  0.00     0.168 C 
HETATM   28  O   UNK N   1      47.971  37.141  51.179  0.00  0.00    -0.391 OA
HETATM   29  C   UNK N   1      47.718  37.313  49.780  0.00  0.00     0.168 C 
HETATM   30  C   UNK N   1      46.514  38.236  49.430  0.00  0.00     0.031 C 
ENDBRANCH  24  25
ENDBRANCH  23  24
ENDBRANCH  21  23
ENDBRANCH   4  17
BRANCH   1  31
HETATM   31  C   UNK N   1      37.860  35.983  54.351  0.00  0.00     0.272 C 
HETATM   32  O   UNK N   1      37.312  34.894  54.456  0.00  0.00    -0.266 OA
HETATM   33  N   UNK N   1      38.440  36.553  55.468  0.00  0.00    -0.343 N 
HETATM   34  C   UNK N   1      38.933  37.924  55.512  0.00  0.00     0.152 C 
HETATM   35  C   UNK N   1      38.517  35.823  56.730  0.00  0.00     0.152 C 
HETATM   36  C   UNK N   1      38.237  38.640  56.679  0.00  0.00     0.187 C 
HETATM   37  O   UNK N   1      38.454  37.945  57.896  0.00  0.00    -0.388 OA
HETATM   38  C   UNK N   1      37.852  36.663  57.826  0.00  0.00     0.187 C 
ENDBRANCH   1  31
TORSDOF 5
ENDMDL
MODEL 4
REMARK VINA RESULT:      -8.2      3.702      6.759
REMARK  5 active torsions:
REMARK  status: ('A' for Active; 'I' for Inactive)
REMARK    1  A    between atoms: C_2  and  C_3 
REMARK       I    between atoms: C_2  and  N_33 
REMARK    2  A    between atoms: N_6  and  C_7 
REMARK    3  A    between atoms: N_11  and  C_12 
REMARK    4  A    between atoms: C_12  and  C_13 
REMARK    5  A    between atoms: C_13  and  C_14 
ROOT
HETATM    1  C   UNK N   1      37.901  36.320  52.715  0.00  0.00     0.126 A 
HETATM    2  N   UNK N   1      38.974  36.397  51.897  0.00  0.00    -0.292 N 
ATOM      3  HN  UNK N   1      39.869  35.935  52.055  1.00  0.00     0.187 HD
HETATM    4  N   UNK N   1      38.679  37.167  50.856  0.00  0.00    -0.284 N 
HETATM    5  C   UNK N   1      37.397  37.621  50.994  0.00  0.00     0.072 A 
HETATM    6  C   UNK N   1      36.874  37.070  52.169  0.00  0.00     0.019 A 
HETATM    7  C   UNK N   1      35.508  37.331  52.746  0.00  0.00     0.189 C 
HETATM    8  S   UNK N   1      35.164  39.056  52.403  0.00  0.00     0.180 S 
HETATM    9  O   UNK N   1      33.691  39.402  52.671  0.00  0.00    -0.222 OA
HETATM   10  O   UNK N   1      35.929  39.978  53.364  0.00  0.00    -0.222 OA
HETATM   11  C   UNK N   1      35.619  39.400  50.720  0.00  0.00     0.072 A 
HETATM   12  C   UNK N   1      34.947  40.383  49.987  0.00  0.00     0.024 A 
HETATM   13  C   UNK N   1      35.296  40.620  48.658  0.00  0.00     0.002 A 
HETATM   14  C   UNK N   1      36.306  39.868  48.059  0.00  0.00     0.001 A 
HETATM   15  C   UNK N   1      36.986  38.888  48.788  0.00  0.00     0.015 A 
HETATM   16  C   UNK N   1      36.667  38.642  50.139  0.00  0.00     0.014 A 
ENDROOT
BRANCH   4  17
HETATM   17  C   UNK N   1      39.700  37.628  49.887  0.00  0.00     0.137 C 
HETATM   18  C   UNK N   1      40.032  39.121  50.021  0.00  0.00     0.031 C 
HETATM   19  C   UNK N   1      40.839  39.449  51.296  0.00  0.00     0.032 C 
HETATM   20  C   UNK N   1      41.736  38.271  51.742  0.00  0.00     0.272 C 
HETATM   21  N   UNK N   1      42.174  37.442  50.608  0.00  0.00     0.090 N 
HETATM   22  C   UNK N   1      41.019  36.786  49.931  0.00  0.00     0.299 C 
BRANCH  21  23
HETATM   23  C   UNK N   1      43.129  38.134  49.702  0.00  0.00     0.273 C 
BRANCH  23  24
HETATM   24  C   UNK N   1      44.411  37.310  49.493  0.00  0.00     0.035 C 
BRANCH  24  25
HETATM   25  C   UNK N   1      45.661  37.904  50.185  0.00  0.00    -0.009 C 
HETATM   26  C   UNK N   1      46.995  37.266  49.715  0.00  0.00     0.031 C 
HETATM   27  C   UNK N   1      48.074  37.325  50.818  0.00  0.00     0.168 C 
HETATM   28  O   UNK N   1      47.998  38.531  51.543  0.00  0.00    -0.391 OA
HETATM   29  C   UNK N   1      46.777  38.619  52.286  0.00  0.00     0.168 C 
HETATM   30  C   UNK N   1      45.588  37.795  51.712  0.00  0.00     0.031 C 
ENDBRANCH  24  25
ENDBRANCH  23  24
ENDBRANCH  21  23
ENDBRANCH   4  17
BRANCH   1  31
HETATM   31  C   UNK N   1      37.839  35.510  53.974  0.00  0.00     0.272 C 
HETATM   32  O   UNK N   1      38.335  35.998  54.980  0.00  0.00    -0.266 OA
HETATM   33  N   UNK N   1      37.228  34.274  54.060  0.00  0.00    -0.343 N 
HETATM   34  C   UNK N   1      36.791  33.507  52.899  0.00  0.00     0.152 C 
HETATM   35  C   UNK N   1      37.057  33.607  55.347  0.00  0.00     0.152 C 
HETATM   36  C   UNK N   1      37.456  32.124  52.968  0.00  0.00     0.187 C 
HETATM   37  O   UNK N   1      37.149  31.479  54.193  0.00  0.00    -0.388 OA
HETATM   38  C   UNK N   1      37.701  32.218  55.271  0.00  0.00     0.187 C 
ENDBRANCH   1  31
TORSDOF 5
ENDMDL
MODEL 5
REMARK VINA RESULT:      -8.2      3.405      4.523
REMARK  5 active torsions:
REMARK  status: ('A' for Active; 'I' for Inactive)
REMARK    1  A    between atoms: C_2  and  C_3 
REMARK       I    between atoms: C_2  and  N_33 
REMARK    2  A    between atoms: N_6  and  C_7 
REMARK    3  A    between atoms: N_11  and  C_12 
REMARK    4  A    between atoms: C_12  and  C_13 
REMARK    5  A    between atoms: C_13  and  C_14 
ROOT
HETATM    1  C   UNK N   1      38.929  38.360  52.182  0.00  0.00     0.126 A 
HETATM    2  N   UNK N   1      40.005  38.222  51.377  0.00  0.00    -0.292 N 
ATOM      3  HN  UNK N   1      39.993  37.810  50.444  1.00  0.00     0.187 HD
HETATM    4  N   UNK N   1      41.079  38.706  51.990  0.00  0.00    -0.284 N 
HETATM    5  C   UNK N   1      40.713  39.156  53.228  0.00  0.00     0.072 A 
HETATM    6  C   UNK N   1      39.333  38.964  53.360  0.00  0.00     0.019 A 
HETATM    7  C   UNK N   1      38.503  39.271  54.578  0.00  0.00     0.189 C 
HETATM    8  S   UNK N   1      39.544  38.874  55.982  0.00  0.00     0.180 S 
HETATM    9  O   UNK N   1      38.948  39.404  57.295  0.00  0.00    -0.222 OA
HETATM   10  O   UNK N   1      39.617  37.356  56.209  0.00  0.00    -0.222 OA
HETATM   11  C   UNK N   1      41.167  39.536  55.688  0.00  0.00     0.072 A 
HETATM   12  C   UNK N   1      41.975  39.940  56.754  0.00  0.00     0.024 A 
HETATM   13  C   UNK N   1      43.234  40.485  56.505  0.00  0.00     0.002 A 
HETATM   14  C   UNK N   1      43.679  40.637  55.193  0.00  0.00     0.001 A 
HETATM   15  C   UNK N   1      42.879  40.229  54.122  0.00  0.00     0.015 A 
HETATM   16  C   UNK N   1      41.610  39.656  54.346  0.00  0.00     0.014 A 
ENDROOT
BRANCH   4  17
HETATM   17  C   UNK N   1      42.452  38.512  51.470  0.00  0.00     0.137 C 
HETATM   18  C   UNK N   1      42.962  37.072  51.627  0.00  0.00     0.031 C 
HETATM   19  C   UNK N   1      42.271  36.078  50.670  0.00  0.00     0.032 C 
HETATM   20  C   UNK N   1      41.822  36.748  49.350  0.00  0.00     0.272 C 
HETATM   21  N   UNK N   1      42.688  37.879  48.977  0.00  0.00     0.090 N 
HETATM   22  C   UNK N   1      42.622  38.975  49.985  0.00  0.00     0.299 C 
BRANCH  21  23
HETATM   23  C   UNK N   1      44.060  37.469  48.577  0.00  0.00     0.273 C 
BRANCH  23  24
HETATM   24  C   UNK N   1      45.111  38.503  49.012  0.00  0.00     0.035 C 
BRANCH  24  25
HETATM   25  C   UNK N   1      46.232  37.924  49.906  0.00  0.00    -0.009 C 
HETATM   26  C   UNK N   1      46.119  38.341  51.396  0.00  0.00     0.031 C 
HETATM   27  C   UNK N   1      47.499  38.374  52.086  0.00  0.00     0.168 C 
HETATM   28  O   UNK N   1      48.324  37.326  51.630  0.00  0.00    -0.391 OA
HETATM   29  C   UNK N   1      48.655  37.485  50.246  0.00  0.00     0.168 C 
HETATM   30  C   UNK N   1      47.630  38.305  49.407  0.00  0.00     0.031 C 
ENDBRANCH  24  25
ENDBRANCH  23  24
ENDBRANCH  21  23
ENDBRANCH   4  17
BRANCH   1  31
HETATM   31  C   UNK N   1      37.529  37.965  51.821  0.00  0.00     0.272 C 
HETATM   32  O   UNK N   1      36.830  38.809  51.277  0.00  0.00    -0.266 OA
HETATM   33  N   UNK N   1      37.010  36.703  52.039  0.00  0.00    -0.343 N 
HETATM   34  C   UNK N   1      37.667  35.690  52.857  0.00  0.00     0.152 C 
HETATM   35  C   UNK N   1      35.698  36.331  51.521  0.00  0.00     0.152 C 
HETATM   36  C   UNK N   1      36.679  35.247  53.946  0.00  0.00     0.187 C 
HETATM   37  O   UNK N   1      35.470  34.782  53.369  0.00  0.00    -0.388 OA
HETATM   38  C   UNK N   1      34.827  35.846  52.686  0.00  0.00     0.187 C 
ENDBRANCH   1  31
TORSDOF 5
ENDMDL
MODEL 6
REMARK VINA RESULT:      -8.1      4.099      8.747
REMARK  5 active torsions:
REMARK  status: ('A' for Active; 'I' for Inactive)
REMARK    1  A    between atoms: C_2  and  C_3 
REMARK       I    between atoms: C_2  and  N_33 
REMARK    2  A    between atoms: N_6  and  C_7 
REMARK    3  A    between atoms: N_11  and  C_12 
REMARK    4  A    between atoms: C_12  and  C_13 
REMARK    5  A    between atoms: C_13  and  C_14 
ROOT
HETATM    1  C   UNK N   1      41.495  37.437  50.886  0.00  0.00     0.126 A 
HETATM    2  N   UNK N   1      41.164  38.309  51.862  0.00  0.00    -0.292 N 
ATOM      3  HN  UNK N   1      40.218  38.627  52.071  1.00  0.00     0.187 HD
HETATM    4  N   UNK N   1      42.262  38.687  52.507  0.00  0.00    -0.284 N 
HETATM    5  C   UNK N   1      43.341  38.068  51.938  0.00  0.00     0.072 A 
HETATM    6  C   UNK N   1      42.866  37.245  50.911  0.00  0.00     0.019 A 
HETATM    7  C   UNK N   1      43.703  36.408  49.981  0.00  0.00     0.189 C 
HETATM    8  S   UNK N   1      45.183  37.370  49.669  0.00  0.00     0.180 S 
HETATM    9  O   UNK N   1      46.264  36.532  48.970  0.00  0.00    -0.222 OA
HETATM   10  O   UNK N   1      44.908  38.504  48.670  0.00  0.00    -0.222 OA
HETATM   11  C   UNK N   1      45.764  38.030  51.213  0.00  0.00     0.072 A 
HETATM   12  C   UNK N   1      47.126  38.265  51.419  0.00  0.00     0.024 A 
HETATM   13  C   UNK N   1      47.569  38.756  52.647  0.00  0.00     0.002 A 
HETATM   14  C   UNK N   1      46.655  38.998  53.671  0.00  0.00     0.001 A 
HETATM   15  C   UNK N   1      45.290  38.771  53.469  0.00  0.00     0.015 A 
HETATM   16  C   UNK N   1      44.813  38.295  52.231  0.00  0.00     0.014 A 
ENDROOT
BRANCH   4  17
HETATM   17  C   UNK N   1      42.272  39.796  53.488  0.00  0.00     0.137 C 
HETATM   18  C   UNK N   1      41.024  40.687  53.409  0.00  0.00     0.031 C 
HETATM   19  C   UNK N   1      39.751  39.994  53.942  0.00  0.00     0.032 C 
HETATM   20  C   UNK N   1      40.066  38.959  55.048  0.00  0.00     0.272 C 
HETATM   21  N   UNK N   1      41.268  39.316  55.819  0.00  0.00     0.090 N 
HETATM   22  C   UNK N   1      42.488  39.317  54.962  0.00  0.00     0.299 C 
BRANCH  21  23
HETATM   23  C   UNK N   1      41.091  40.522  56.670  0.00  0.00     0.273 C 
BRANCH  23  24
HETATM   24  C   UNK N   1      39.994  40.315  57.728  0.00  0.00     0.035 C 
BRANCH  24  25
HETATM   25  C   UNK N   1      39.090  41.550  57.949  0.00  0.00    -0.009 C 
HETATM   26  C   UNK N   1      38.298  41.977  56.685  0.00  0.00     0.031 C 
HETATM   27  C   UNK N   1      37.993  43.490  56.687  0.00  0.00     0.168 C 
HETATM   28  O   UNK N   1      37.696  43.950  57.986  0.00  0.00    -0.391 OA
HETATM   29  C   UNK N   1      38.835  43.852  58.848  0.00  0.00     0.168 C 
HETATM   30  C   UNK N   1      39.877  42.764  58.455  0.00  0.00     0.031 C 
ENDBRANCH  24  25
ENDBRANCH  23  24
ENDBRANCH  21  23
ENDBRANCH   4  17
BRANCH   1  31
HETATM   31  C   UNK N   1      40.520  36.762  49.970  0.00  0.00     0.272 C 
HETATM   32  O   UNK N   1      40.799  36.728  48.779  0.00  0.00    -0.266 OA
HETATM   33  N   UNK N   1      39.356  36.157  50.403  0.00  0.00    -0.343 N 
HETATM   34  C   UNK N   1      38.819  36.311  51.750  0.00  0.00     0.152 C 
HETATM   35  C   UNK N   1      38.529  35.377  49.488  0.00  0.00     0.152 C 
HETATM   36  C   UNK N   1      37.379  36.831  51.628  0.00  0.00     0.187 C 
HETATM   37  O   UNK N   1      36.597  35.961  50.827  0.00  0.00    -0.388 OA
HETATM   38  C   UNK N   1      37.106  35.947  49.503  0.00  0.00     0.187 C 
ENDBRANCH   1  31
TORSDOF 5
ENDMDL
MODEL 7
REMARK VINA RESULT:      -8.0      3.462      6.571
REMARK  5 active torsions:
REMARK  status: ('A' for Active; 'I' for Inactive)
REMARK    1  A    between atoms: C_2  and  C_3 
REMARK       I    between atoms: C_2  and  N_33 
REMARK    2  A    between atoms: N_6  and  C_7 
REMARK    3  A    between atoms: N_11  and  C_12 
REMARK    4  A    between atoms: C_12  and  C_13 
REMARK    5  A    between atoms: C_13  and  C_14 
ROOT
HETATM    1  C   UNK N   1      39.330  35.133  48.968  0.00  0.00     0.126 A 
HETATM    2  N   UNK N   1      40.287  35.794  49.656  0.00  0.00    -0.292 N 
ATOM      3  HN  UNK N   1      40.116  36.472  50.399  1.00  0.00     0.187 HD
HETATM    4  N   UNK N   1      41.483  35.424  49.213  0.00  0.00    -0.284 N 
HETATM    5  C   UNK N   1      41.317  34.516  48.204  0.00  0.00     0.072 A 
HETATM    6  C   UNK N   1      39.943  34.300  48.049  0.00  0.00     0.019 A 
HETATM    7  C   UNK N   1      39.291  33.411  47.023  0.00  0.00     0.189 C 
HETATM    8  S   UNK N   1      40.288  33.575  45.542  0.00  0.00     0.180 S 
HETATM    9  O   UNK N   1      39.923  32.513  44.495  0.00  0.00    -0.222 OA
HETATM   10  O   UNK N   1      39.999  34.901  44.822  0.00  0.00    -0.222 OA
HETATM   11  C   UNK N   1      42.002  33.480  46.001  0.00  0.00     0.072 A 
HETATM   12  C   UNK N   1      42.950  32.966  45.110  0.00  0.00     0.024 A 
HETATM   13  C   UNK N   1      44.286  32.870  45.496  0.00  0.00     0.002 A 
HETATM   14  C   UNK N   1      44.673  33.274  46.773  0.00  0.00     0.001 A 
HETATM   15  C   UNK N   1      43.731  33.794  47.667  0.00  0.00     0.015 A 
HETATM   16  C   UNK N   1      42.377  33.921  47.295  0.00  0.00     0.014 A 
ENDROOT
BRANCH   4  17
HETATM   17  C   UNK N   1      42.731  36.118  49.606  0.00  0.00     0.137 C 
HETATM   18  C   UNK N   1      43.104  37.274  48.666  0.00  0.00     0.031 C 
HETATM   19  C   UNK N   1      42.172  38.496  48.811  0.00  0.00     0.032 C 
HETATM   20  C   UNK N   1      41.599  38.631  50.241  0.00  0.00     0.272 C 
HETATM   21  N   UNK N   1      42.511  38.089  51.261  0.00  0.00     0.090 N 
HETATM   22  C   UNK N   1      42.718  36.623  51.087  0.00  0.00     0.299 C 
BRANCH  21  23
HETATM   23  C   UNK N   1      43.754  38.888  51.430  0.00  0.00     0.273 C 
BRANCH  23  24
HETATM   24  C   UNK N   1      44.756  38.188  52.364  0.00  0.00     0.035 C 
BRANCH  24  25
HETATM   25  C   UNK N   1      46.114  37.863  51.701  0.00  0.00    -0.009 C 
HETATM   26  C   UNK N   1      47.310  38.641  52.313  0.00  0.00     0.031 C 
HETATM   27  C   UNK N   1      48.437  38.858  51.281  0.00  0.00     0.168 C 
HETATM   28  O   UNK N   1      48.584  37.736  50.441  0.00  0.00    -0.391 OA
HETATM   29  C   UNK N   1      47.430  37.544  49.616  0.00  0.00     0.168 C 
HETATM   30  C   UNK N   1      46.100  38.118  50.189  0.00  0.00     0.031 C 
ENDBRANCH  24  25
ENDBRANCH  23  24
ENDBRANCH  21  23
ENDBRANCH   4  17
BRANCH   1  31
HETATM   31  C   UNK N   1      37.857  35.258  49.211  0.00  0.00     0.272 C 
HETATM   32  O   UNK N   1      37.295  36.245  48.757  0.00  0.00    -0.266 OA
HETATM   33  N   UNK N   1      37.109  34.311  49.883  0.00  0.00    -0.343 N 
HETATM   34  C   UNK N   1      37.692  33.210  50.641  0.00  0.00     0.152 C 
HETATM   35  C   UNK N   1      35.654  34.409  49.947  0.00  0.00     0.152 C 
HETATM   36  C   UNK N   1      37.144  33.278  52.074  0.00  0.00     0.187 C 
HETATM   37  O   UNK N   1      35.726  33.245  52.071  0.00  0.00    -0.388 OA
HETATM   38  C   UNK N   1      35.224  34.401  51.419  0.00  0.00     0.187 C 
ENDBRANCH   1  31
TORSDOF 5
ENDMDL
MODEL 8
REMARK VINA RESULT:      -8.0      2.625      3.691
REMARK  5 active torsions:
REMARK  status: ('A' for Active; 'I' for Inactive)
REMARK    1  A    between atoms: C_2  and  C_3 
REMARK       I    between atoms: C_2  and  N_33 
REMARK    2  A    between atoms: N_6  and  C_7 
REMARK    3  A    between atoms: N_11  and  C_12 
REMARK    4  A    between atoms: C_12  and  C_13 
REMARK    5  A    between atoms: C_13  and  C_14 
ROOT
HETATM    1  C   UNK N   1      41.946  39.177  52.730  0.00  0.00     0.126 A 
HETATM    2  N   UNK N   1      41.756  38.099  51.937  0.00  0.00    -0.292 N 
ATOM      3  HN  UNK N   1      40.856  37.661  51.745  1.00  0.00     0.187 HD
HETATM    4  N   UNK N   1      42.925  37.701  51.449  0.00  0.00    -0.284 N 
HETATM    5  C   UNK N   1      43.908  38.516  51.939  0.00  0.00     0.072 A 
HETATM    6  C   UNK N   1      43.296  39.483  52.744  0.00  0.00     0.019 A 
HETATM    7  C   UNK N   1      43.995  40.562  53.528  0.00  0.00     0.189 C 
HETATM    8  S   UNK N   1      45.516  39.821  54.116  0.00  0.00     0.180 S 
HETATM    9  O   UNK N   1      46.475  40.876  54.687  0.00  0.00    -0.222 OA
HETATM   10  O   UNK N   1      45.256  38.890  55.311  0.00  0.00    -0.222 OA
HETATM   11  C   UNK N   1      46.260  38.918  52.778  0.00  0.00     0.072 A 
HETATM   12  C   UNK N   1      47.648  38.770  52.703  0.00  0.00     0.024 A 
HETATM   13  C   UNK N   1      48.218  38.085  51.631  0.00  0.00     0.002 A 
HETATM   14  C   UNK N   1      47.404  37.560  50.629  0.00  0.00     0.001 A 
HETATM   15  C   UNK N   1      46.014  37.698  50.700  0.00  0.00     0.015 A 
HETATM   16  C   UNK N   1      45.411  38.369  51.784  0.00  0.00     0.014 A 
ENDROOT
BRANCH   4  17
HETATM   17  C   UNK N   1      43.093  36.422  50.721  0.00  0.00     0.137 C 
HETATM   18  C   UNK N   1      41.871  35.498  50.827  0.00  0.00     0.031 C 
HETATM   19  C   UNK N   1      40.659  36.004  50.015  0.00  0.00     0.032 C 
HETATM   20  C   UNK N   1      41.085  36.816  48.769  0.00  0.00     0.272 C 
HETATM   21  N   UNK N   1      42.387  36.379  48.237  0.00  0.00     0.090 N 
HETATM   22  C   UNK N   1      43.485  36.612  49.218  0.00  0.00     0.299 C 
BRANCH  21  23
HETATM   23  C   UNK N   1      42.355  35.021  47.633  0.00  0.00     0.273 C 
BRANCH  23  24
HETATM   24  C   UNK N   1      43.506  34.142  48.152  0.00  0.00     0.035 C 
BRANCH  24  25
HETATM   25  C   UNK N   1      44.148  33.241  47.072  0.00  0.00    -0.009 C 
HETATM   26  C   UNK N   1      45.690  33.382  46.977  0.00  0.00     0.031 C 
HETATM   27  C   UNK N   1      46.205  33.074  45.555  0.00  0.00     0.168 C 
HETATM   28  O   UNK N   1      45.481  32.017  44.968  0.00  0.00    -0.391 OA
HETATM   29  C   UNK N   1      44.115  32.381  44.740  0.00  0.00     0.168 C 
HETATM   30  C   UNK N   1      43.557  33.491  45.680  0.00  0.00     0.031 C 
ENDBRANCH  24  25
ENDBRANCH  23  24
ENDBRANCH  21  23
ENDBRANCH   4  17
BRANCH   1  31
HETATM   31  C   UNK N   1      40.856  39.932  53.429  0.00  0.00     0.272 C 
HETATM   32  O   UNK N   1      40.320  40.842  52.812  0.00  0.00    -0.266 OA
HETATM   33  N   UNK N   1      40.413  39.632  54.702  0.00  0.00    -0.343 N 
HETATM   34  C   UNK N   1      41.105  38.719  55.604  0.00  0.00     0.152 C 
HETATM   35  C   UNK N   1      39.242  40.297  55.266  0.00  0.00     0.152 C 
HETATM   36  C   UNK N   1      41.396  39.473  56.910  0.00  0.00     0.187 C 
HETATM   37  O   UNK N   1      40.200  39.988  57.470  0.00  0.00    -0.388 OA
HETATM   38  C   UNK N   1      39.640  40.953  56.594  0.00  0.00     0.187 C 
ENDBRANCH   1  31
TORSDOF 5
ENDMDL
MODEL 9
REMARK VINA RESULT:      -7.9      2.092      2.773
REMARK  5 active torsions:
REMARK  status: ('A' for Active; 'I' for Inactive)
REMARK    1  A    between atoms: C_2  and  C_3 
REMARK       I    between atoms: C_2  and  N_33 
REMARK    2  A    between atoms: N_6  and  C_7 
REMARK    3  A    between atoms: N_11  and  C_12 
REMARK    4  A    between atoms: C_12  and  C_13 
REMARK    5  A    between atoms: C_13  and  C_14 
ROOT
HETATM    1  C   UNK N   1      39.420  38.414  51.843  0.00  0.00     0.126 A 
HETATM    2  N   UNK N   1      40.351  38.023  50.946  0.00  0.00    -0.292 N 
ATOM      3  HN  UNK N   1      40.158  37.529  50.075  1.00  0.00     0.187 HD
HETATM    4  N   UNK N   1      41.555  38.383  51.375  0.00  0.00    -0.284 N 
HETATM    5  C   UNK N   1      41.422  39.008  52.585  0.00  0.00     0.072 A 
HETATM    6  C   UNK N   1      40.058  39.057  52.890  0.00  0.00     0.019 A 
HETATM    7  C   UNK N   1      39.446  39.615  54.148  0.00  0.00     0.189 C 
HETATM    8  S   UNK N   1      40.586  39.194  55.465  0.00  0.00     0.180 S 
HETATM    9  O   UNK N   1      40.249  39.941  56.764  0.00  0.00    -0.222 OA
HETATM   10  O   UNK N   1      40.458  37.714  55.859  0.00  0.00    -0.222 OA
HETATM   11  C   UNK N   1      42.239  39.549  54.917  0.00  0.00     0.072 A 
HETATM   12  C   UNK N   1      43.228  39.919  55.833  0.00  0.00     0.024 A 
HETATM   13  C   UNK N   1      44.512  40.223  55.383  0.00  0.00     0.002 A 
HETATM   14  C   UNK N   1      44.804  40.171  54.021  0.00  0.00     0.001 A 
HETATM   15  C   UNK N   1      43.821  39.795  53.101  0.00  0.00     0.015 A 
HETATM   16  C   UNK N   1      42.520  39.462  53.530  0.00  0.00     0.014 A 
ENDROOT
BRANCH   4  17
HETATM   17  C   UNK N   1      42.805  37.917  50.733  0.00  0.00     0.137 C 
HETATM   18  C   UNK N   1      43.365  36.631  51.357  0.00  0.00     0.031 C 
HETATM   19  C   UNK N   1      42.522  35.381  51.025  0.00  0.00     0.032 C 
HETATM   20  C   UNK N   1      41.814  35.498  49.654  0.00  0.00     0.272 C 
HETATM   21  N   UNK N   1      42.568  36.333  48.706  0.00  0.00     0.090 N 
HETATM   22  C   UNK N   1      42.677  37.742  49.183  0.00  0.00     0.299 C 
BRANCH  21  23
HETATM   23  C   UNK N   1      43.845  35.717  48.258  0.00  0.00     0.273 C 
BRANCH  23  24
HETATM   24  C   UNK N   1      43.730  34.187  48.152  0.00  0.00     0.035 C 
BRANCH  24  25
HETATM   25  C   UNK N   1      44.211  33.611  46.800  0.00  0.00    -0.009 C 
HETATM   26  C   UNK N   1      43.211  32.615  46.155  0.00  0.00     0.031 C 
HETATM   27  C   UNK N   1      43.931  31.579  45.266  0.00  0.00     0.168 C 
HETATM   28  O   UNK N   1      45.008  32.164  44.569  0.00  0.00    -0.391 OA
HETATM   29  C   UNK N   1      46.041  32.590  45.465  0.00  0.00     0.168 C 
HETATM   30  C   UNK N   1      45.573  32.918  46.913  0.00  0.00     0.031 C 
ENDBRANCH  24  25
ENDBRANCH  23  24
ENDBRANCH  21  23
ENDBRANCH   4  17
BRANCH   1  31
HETATM   31  C   UNK N   1      37.942  38.219  51.688  0.00  0.00     0.272 C 
HETATM   32  O   UNK N   1      37.293  39.164  51.261  0.00  0.00    -0.266 OA
HETATM   33  N   UNK N   1      37.294  37.032  51.969  0.00  0.00    -0.343 N 
HETATM   34  C   UNK N   1      37.918  35.917  52.671  0.00  0.00     0.152 C 
HETATM   35  C   UNK N   1      35.882  36.853  51.645  0.00  0.00     0.152 C 
HETATM   36  C   UNK N   1      37.046  35.579  53.890  0.00  0.00     0.187 C 
HETATM   37  O   UNK N   1      35.715  35.295  53.492  0.00  0.00    -0.388 OA
HETATM   38  C   UNK N   1      35.131  36.454  52.921  0.00  0.00     0.187 C 
ENDBRANCH   1  31
TORSDOF 5
ENDMDL
