MODEL 1
REMARK VINA RESULT:      -8.1      0.000      0.000
REMARK  5 active torsions:
REMARK  status: ('A' for Active; 'I' for Inactive)
REMARK    1  A    between atoms: N_6  and  C_7 
REMARK    2  A    between atoms: C_7  and  C_8 
REMARK    3  A    between atoms: C_8  and  N_9 
REMARK    4  A    between atoms: C_13  and  N_14 
REMARK    5  A    between atoms: C_17  and  C_18 
REMARK       I    between atoms: C_18  and  N_20 
ROOT
HETATM    1  N   UNK N   1      41.051  37.871  51.772  0.00  0.00    -0.284 N 
HETATM    2  N   UNK N   1      39.958  37.348  51.232  0.00  0.00    -0.292 N 
ATOM      3  HN  UNK N   1      39.935  36.780  50.385  1.00  0.00     0.187 HD
HETATM    4  C   UNK N   1      38.886  37.682  51.972  0.00  0.00     0.126 A 
HETATM    5  C   UNK N   1      39.316  38.453  53.047  0.00  0.00     0.019 A 
HETATM    6  C   UNK N   1      40.713  38.532  52.920  0.00  0.00     0.072 A 
HETATM    7  C   UNK N   1      41.637  39.253  53.892  0.00  0.00     0.014 A 
HETATM    8  C   UNK N   1      43.023  38.980  53.983  0.00  0.00     0.015 A 
HETATM    9  C   UNK N   1      43.833  39.674  54.889  0.00  0.00     0.001 A 
HETATM   10  C   UNK N   1      43.284  40.637  55.732  0.00  0.00     0.002 A 
HETATM   11  C   UNK N   1      41.917  40.891  55.694  0.00  0.00     0.024 A 
HETATM   12  C   UNK N   1      41.101  40.198  54.796  0.00  0.00     0.072 A 
HETATM   13  S   UNK N   1      39.357  40.470  54.799  0.00  0.00     0.180 S 
HETATM   14  O   UNK N   1      39.051  41.760  54.025  0.00  0.00    -0.222 OA
HETATM   15  O   UNK N   1      38.843  40.806  56.207  0.00  0.00    -0.222 OA
HETATM   16  C   UNK N   1      38.437  39.111  54.081  0.00  0.00     0.189 C 
ENDROOT
BRANCH   1  17
HETATM   17  C   UNK N   1      42.342  37.835  51.053  0.00  0.00     0.137 C 
HETATM   18  C   UNK N   1      42.963  36.416  51.061  0.00  0.00     0.031 C 
HETATM   19  C   UNK N   1      42.739  35.725  49.718  0.00  0.00     0.032 C 
HETATM   20  C   UNK N   1      43.472  36.547  48.624  0.00  0.00     0.272 C 
HETATM   21  N   UNK N   1      43.251  38.022  48.720  0.00  0.00     0.092 N 
HETATM   22  C   UNK N   1      42.130  38.371  49.607  0.00  0.00     0.299 C 
BRANCH  21  23
HETATM   23  C   UNK N   1      44.473  38.822  48.984  0.00  0.00     0.292 C 
BRANCH  23  24
HETATM   24  C   UNK N   1      45.693  37.898  49.120  0.00  0.00     0.156 C 
BRANCH  24  25
HETATM   25  N   UNK N   1      46.477  38.185  50.311  0.00  0.00    -0.350 N 
HETATM   26  C   UNK N   1      45.922  38.191  51.637  0.00  0.00     0.126 A 
HETATM   27  C   UNK N   1      47.105  38.591  52.547  0.00  0.00     0.029 A 
HETATM   28  C   UNK N   1      48.355  38.697  51.646  0.00  0.00     0.104 A 
HETATM   29  C   UNK N   1      47.784  38.478  50.303  0.00  0.00     0.219 A 
HETATM   30  O   UNK N   1      48.453  38.508  49.279  0.00  0.00    -0.273 OA
ENDBRANCH  24  25
ENDBRANCH  23  24
ENDBRANCH  21  23
ENDBRANCH   1  17
BRANCH   4  31
HETATM   31  C   UNK N   1      37.456  37.385  51.607  0.00  0.00     0.272 C 
HETATM   32  O   UNK N   1      36.904  38.147  50.825  0.00  0.00    -0.266 OA
HETATM   33  N   UNK N   1      36.752  36.288  52.064  0.00  0.00    -0.343 N 
HETATM   34  C   UNK N   1      37.356  35.313  52.977  0.00  0.00     0.152 C 
HETATM   35  C   UNK N   1      35.471  35.981  51.411  0.00  0.00     0.152 C 
HETATM   36  C   UNK N   1      36.348  34.293  53.512  0.00  0.00     0.187 C 
HETATM   37  O   UNK N   1      35.533  33.807  52.467  0.00  0.00    -0.388 OA
HETATM   38  C   UNK N   1      34.678  34.864  52.092  0.00  0.00     0.187 C 
ENDBRANCH   4  31
TORSDOF 5
ENDMDL
MODEL 2
REMARK VINA RESULT:      -7.9      4.324      6.116
REMARK  5 active torsions:
REMARK  status: ('A' for Active; 'I' for Inactive)
REMARK    1  A    between atoms: N_6  and  C_7 
REMARK    2  A    between atoms: C_7  and  C_8 
REMARK    3  A    between atoms: C_8  and  N_9 
REMARK    4  A    between atoms: C_13  and  N_14 
REMARK    5  A    between atoms: C_17  and  C_18 
REMARK       I    between atoms: C_18  and  N_20 
ROOT
HETATM    1  N   UNK N   1      41.081  34.839  48.841  0.00  0.00    -0.284 N 
HETATM    2  N   UNK N   1      39.903  34.242  48.714  0.00  0.00    -0.292 N 
ATOM      3  HN  UNK N   1      39.717  33.428  48.129  1.00  0.00     0.187 HD
HETATM    4  C   UNK N   1      38.993  34.876  49.476  0.00  0.00     0.126 A 
HETATM    5  C   UNK N   1      39.624  35.929  50.130  0.00  0.00     0.019 A 
HETATM    6  C   UNK N   1      40.971  35.866  49.736  0.00  0.00     0.072 A 
HETATM    7  C   UNK N   1      42.065  36.804  50.225  0.00  0.00     0.014 A 
HETATM    8  C   UNK N   1      43.442  36.483  50.154  0.00  0.00     0.015 A 
HETATM    9  C   UNK N   1      44.413  37.383  50.611  0.00  0.00     0.001 A 
HETATM   10  C   UNK N   1      44.039  38.607  51.160  0.00  0.00     0.002 A 
HETATM   11  C   UNK N   1      42.691  38.926  51.283  0.00  0.00     0.024 A 
HETATM   12  C   UNK N   1      41.716  38.031  50.834  0.00  0.00     0.072 A 
HETATM   13  S   UNK N   1      40.006  38.406  51.056  0.00  0.00     0.180 S 
HETATM   14  O   UNK N   1      39.562  39.383  49.958  0.00  0.00    -0.222 OA
HETATM   15  O   UNK N   1      39.771  39.225  52.334  0.00  0.00    -0.222 OA
HETATM   16  C   UNK N   1      38.960  36.952  51.018  0.00  0.00     0.189 C 
ENDROOT
BRANCH   1  17
HETATM   17  C   UNK N   1      42.211  34.479  47.958  0.00  0.00     0.137 C 
HETATM   18  C   UNK N   1      43.408  33.913  48.762  0.00  0.00     0.031 C 
HETATM   19  C   UNK N   1      43.456  32.390  48.652  0.00  0.00     0.032 C 
HETATM   20  C   UNK N   1      43.683  32.023  47.160  0.00  0.00     0.272 C 
HETATM   21  N   UNK N   1      42.822  32.787  46.207  0.00  0.00     0.092 N 
HETATM   22  C   UNK N   1      41.709  33.479  46.877  0.00  0.00     0.299 C 
BRANCH  21  23
HETATM   23  C   UNK N   1      43.559  33.656  45.257  0.00  0.00     0.292 C 
BRANCH  23  24
HETATM   24  C   UNK N   1      42.573  34.456  44.393  0.00  0.00     0.156 C 
BRANCH  24  25
HETATM   25  N   UNK N   1      42.271  33.791  43.135  0.00  0.00    -0.350 N 
HETATM   26  C   UNK N   1      42.492  32.389  42.912  0.00  0.00     0.126 A 
HETATM   27  C   UNK N   1      42.076  32.163  41.440  0.00  0.00     0.029 A 
HETATM   28  C   UNK N   1      41.517  33.504  40.916  0.00  0.00     0.104 A 
HETATM   29  C   UNK N   1      41.764  34.407  42.058  0.00  0.00     0.219 A 
HETATM   30  O   UNK N   1      41.484  35.597  42.042  0.00  0.00    -0.273 OA
ENDBRANCH  24  25
ENDBRANCH  23  24
ENDBRANCH  21  23
ENDBRANCH   1  17
BRANCH   4  31
HETATM   31  C   UNK N   1      37.519  34.572  49.494  0.00  0.00     0.272 C 
HETATM   32  O   UNK N   1      36.873  34.858  48.497  0.00  0.00    -0.266 OA
HETATM   33  N   UNK N   1      36.868  33.955  50.545  0.00  0.00    -0.343 N 
HETATM   34  C   UNK N   1      37.583  33.552  51.761  0.00  0.00     0.152 C 
HETATM   35  C   UNK N   1      35.498  33.476  50.311  0.00  0.00     0.152 C 
HETATM   36  C   UNK N   1      36.646  33.070  52.871  0.00  0.00     0.187 C 
HETATM   37  O   UNK N   1      35.673  32.190  52.350  0.00  0.00    -0.388 OA
HETATM   38  C   UNK N   1      34.794  32.969  51.569  0.00  0.00     0.187 C 
ENDBRANCH   4  31
TORSDOF 5
ENDMDL
MODEL 3
REMARK VINA RESULT:      -7.7      2.713      4.937
REMARK  5 active torsions:
REMARK  status: ('A' for Active; 'I' for Inactive)
REMARK    1  A    between atoms: N_6  and  C_7 
REMARK    2  A    between atoms: C_7  and  C_8 
REMARK    3  A    between atoms: C_8  and  N_9 
REMARK    4  A    between atoms: C_13  and  N_14 
REMARK    5  A    between atoms: C_17  and  C_18 
REMARK       I    between atoms: C_18  and  N_20 
ROOT
HETATM    1  N   UNK N   1      39.759  38.767  52.276  0.00  0.00    -0.284 N 
HETATM    2  N   UNK N   1      38.559  38.419  52.726  0.00  0.00    -0.292 N 
ATOM      3  HN  UNK N   1      38.106  38.810  53.552  1.00  0.00     0.187 HD
HETATM    4  C   UNK N   1      38.036  37.474  51.926  0.00  0.00     0.126 A 
HETATM    5  C   UNK N   1      38.944  37.207  50.907  0.00  0.00     0.019 A 
HETATM    6  C   UNK N   1      40.027  38.073  51.130  0.00  0.00     0.072 A 
HETATM    7  C   UNK N   1      41.262  38.169  50.244  0.00  0.00     0.014 A 
HETATM    8  C   UNK N   1      42.118  39.296  50.238  0.00  0.00     0.015 A 
HETATM    9  C   UNK N   1      43.246  39.336  49.410  0.00  0.00     0.001 A 
HETATM   10  C   UNK N   1      43.537  38.270  48.562  0.00  0.00     0.002 A 
HETATM   11  C   UNK N   1      42.685  37.171  48.516  0.00  0.00     0.024 A 
HETATM   12  C   UNK N   1      41.554  37.127  49.336  0.00  0.00     0.072 A 
HETATM   13  S   UNK N   1      40.437  35.766  49.224  0.00  0.00     0.180 S 
HETATM   14  O   UNK N   1      41.011  34.581  50.015  0.00  0.00    -0.222 OA
HETATM   15  O   UNK N   1      40.377  35.204  47.796  0.00  0.00    -0.222 OA
HETATM   16  C   UNK N   1      38.799  36.153  49.837  0.00  0.00     0.189 C 
ENDROOT
BRANCH   1  17
HETATM   17  C   UNK N   1      40.646  39.635  53.079  0.00  0.00     0.137 C 
HETATM   18  C   UNK N   1      39.838  40.639  53.940  0.00  0.00     0.031 C 
HETATM   19  C   UNK N   1      39.772  40.170  55.391  0.00  0.00     0.032 C 
HETATM   20  C   UNK N   1      41.220  40.136  55.953  0.00  0.00     0.272 C 
HETATM   21  N   UNK N   1      42.214  39.501  55.035  0.00  0.00     0.092 N 
HETATM   22  C   UNK N   1      41.578  38.741  53.947  0.00  0.00     0.299 C 
BRANCH  21  23
HETATM   23  C   UNK N   1      43.293  40.402  54.561  0.00  0.00     0.292 C 
BRANCH  23  24
HETATM   24  C   UNK N   1      44.666  39.851  54.975  0.00  0.00     0.156 C 
BRANCH  24  25
HETATM   25  N   UNK N   1      45.389  39.265  53.858  0.00  0.00    -0.350 N 
HETATM   26  C   UNK N   1      44.743  38.561  52.784  0.00  0.00     0.126 A 
HETATM   27  C   UNK N   1      45.905  38.088  51.881  0.00  0.00     0.029 A 
HETATM   28  C   UNK N   1      47.207  38.671  52.473  0.00  0.00     0.104 A 
HETATM   29  C   UNK N   1      46.720  39.313  53.710  0.00  0.00     0.219 A 
HETATM   30  O   UNK N   1      47.457  39.882  54.503  0.00  0.00    -0.273 OA
ENDBRANCH  24  25
ENDBRANCH  23  24
ENDBRANCH  21  23
ENDBRANCH   1  17
BRANCH   4  31
HETATM   31  C   UNK N   1      36.749  36.738  52.186  0.00  0.00     0.272 C 
HETATM   32  O   UNK N   1      35.751  37.121  51.590  0.00  0.00    -0.266 OA
HETATM   33  N   UNK N   1      36.638  35.640  53.016  0.00  0.00    -0.343 N 
HETATM   34  C   UNK N   1      37.796  35.103  53.738  0.00  0.00     0.152 C 
HETATM   35  C   UNK N   1      35.390  34.864  52.957  0.00  0.00     0.152 C 
HETATM   36  C   UNK N   1      37.417  34.016  54.748  0.00  0.00     0.187 C 
HETATM   37  O   UNK N   1      36.511  33.101  54.173  0.00  0.00    -0.388 OA
HETATM   38  C   UNK N   1      35.283  33.778  54.028  0.00  0.00     0.187 C 
ENDBRANCH   4  31
TORSDOF 5
ENDMDL
MODEL 4
REMARK VINA RESULT:      -7.6      3.560      6.636
REMARK  5 active torsions:
REMARK  status: ('A' for Active; 'I' for Inactive)
REMARK    1  A    between atoms: N_6  and  C_7 
REMARK    2  A    between atoms: C_7  and  C_8 
REMARK    3  A    between atoms: C_8  and  N_9 
REMARK    4  A    between atoms: C_13  and  N_14 
REMARK    5  A    between atoms: C_17  and  C_18 
REMARK       I    between atoms: C_18  and  N_20 
ROOT
HETATM    1  N   UNK N   1      38.291  36.892  50.592  0.00  0.00    -0.284 N 
HETATM    2  N   UNK N   1      37.465  35.855  50.535  0.00  0.00    -0.292 N 
ATOM      3  HN  UNK N   1      36.552  35.806  50.986  1.00  0.00     0.187 HD
HETATM    4  C   UNK N   1      38.018  34.880  49.792  0.00  0.00     0.126 A 
HETATM    5  C   UNK N   1      39.260  35.318  49.343  0.00  0.00     0.019 A 
HETATM    6  C   UNK N   1      39.400  36.626  49.838  0.00  0.00     0.072 A 
HETATM    7  C   UNK N   1      40.595  37.532  49.577  0.00  0.00     0.014 A 
HETATM    8  C   UNK N   1      40.539  38.939  49.721  0.00  0.00     0.015 A 
HETATM    9  C   UNK N   1      41.667  39.731  49.475  0.00  0.00     0.001 A 
HETATM   10  C   UNK N   1      42.864  39.147  49.067  0.00  0.00     0.002 A 
HETATM   11  C   UNK N   1      42.931  37.771  48.874  0.00  0.00     0.024 A 
HETATM   12  C   UNK N   1      41.808  36.975  49.112  0.00  0.00     0.072 A 
HETATM   13  S   UNK N   1      41.874  35.240  48.798  0.00  0.00     0.180 S 
HETATM   14  O   UNK N   1      42.571  34.545  49.978  0.00  0.00    -0.222 OA
HETATM   15  O   UNK N   1      42.816  34.916  47.629  0.00  0.00    -0.222 OA
HETATM   16  C   UNK N   1      40.257  34.512  48.549  0.00  0.00     0.189 C 
ENDROOT
BRANCH   1  17
HETATM   17  C   UNK N   1      38.028  38.019  51.510  0.00  0.00     0.137 C 
HETATM   18  C   UNK N   1      36.626  38.635  51.274  0.00  0.00     0.031 C 
HETATM   19  C   UNK N   1      35.643  38.157  52.340  0.00  0.00     0.032 C 
HETATM   20  C   UNK N   1      36.146  38.663  53.720  0.00  0.00     0.272 C 
HETATM   21  N   UNK N   1      37.610  38.460  53.946  0.00  0.00     0.092 N 
HETATM   22  C   UNK N   1      38.210  37.530  52.977  0.00  0.00     0.299 C 
BRANCH  21  23
HETATM   23  C   UNK N   1      38.394  39.707  54.120  0.00  0.00     0.292 C 
BRANCH  23  24
HETATM   24  C   UNK N   1      39.463  39.515  55.207  0.00  0.00     0.156 C 
BRANCH  24  25
HETATM   25  N   UNK N   1      40.815  39.609  54.680  0.00  0.00    -0.350 N 
HETATM   26  C   UNK N   1      41.114  39.592  53.274  0.00  0.00     0.126 A 
HETATM   27  C   UNK N   1      42.657  39.664  53.210  0.00  0.00     0.029 A 
HETATM   28  C   UNK N   1      43.165  39.829  54.659  0.00  0.00     0.104 A 
HETATM   29  C   UNK N   1      41.915  39.716  55.436  0.00  0.00     0.219 A 
HETATM   30  O   UNK N   1      41.881  39.767  56.657  0.00  0.00    -0.273 OA
ENDBRANCH  24  25
ENDBRANCH  23  24
ENDBRANCH  21  23
ENDBRANCH   1  17
BRANCH   4  31
HETATM   31  C   UNK N   1      37.442  33.502  49.606  0.00  0.00     0.272 C 
HETATM   32  O   UNK N   1      37.597  32.699  50.516  0.00  0.00    -0.266 OA
HETATM   33  N   UNK N   1      36.717  33.108  48.499  0.00  0.00    -0.343 N 
HETATM   34  C   UNK N   1      36.461  34.024  47.383  0.00  0.00     0.152 C 
HETATM   35  C   UNK N   1      35.988  31.834  48.579  0.00  0.00     0.152 C 
HETATM   36  C   UNK N   1      35.815  33.332  46.180  0.00  0.00     0.187 C 
HETATM   37  O   UNK N   1      34.765  32.488  46.599  0.00  0.00    -0.388 OA
HETATM   38  C   UNK N   1      35.361  31.392  47.256  0.00  0.00     0.187 C 
ENDBRANCH   4  31
TORSDOF 5
ENDMDL
MODEL 5
REMARK VINA RESULT:      -7.6      3.128      6.552
REMARK  5 active torsions:
REMARK  status: ('A' for Active; 'I' for Inactive)
REMARK    1  A    between atoms: N_6  and  C_7 
REMARK    2  A    between atoms: C_7  and  C_8 
REMARK    3  A    between atoms: C_8  and  N_9 
REMARK    4  A    between atoms: C_13  and  N_14 
REMARK    5  A    between atoms: C_17  and  C_18 
REMARK       I    between atoms: C_18  and  N_20 
ROOT
HETATM    1  N   UNK N   1      42.131  40.113  54.745  0.00  0.00    -0.284 N 
HETATM    2  N   UNK N   1      42.350  40.527  55.986  0.00  0.00    -0.292 N 
ATOM      3  HN  UNK N   1      43.221  40.937  56.323  1.00  0.00     0.187 HD
HETATM    4  C   UNK N   1      41.249  40.321  56.731  0.00  0.00     0.126 A 
HETATM    5  C   UNK N   1      40.271  39.753  55.921  0.00  0.00     0.019 A 
HETATM    6  C   UNK N   1      40.845  39.661  54.642  0.00  0.00     0.072 A 
HETATM    7  C   UNK N   1      40.136  39.127  53.406  0.00  0.00     0.014 A 
HETATM    8  C   UNK N   1      40.561  39.420  52.088  0.00  0.00     0.015 A 
HETATM    9  C   UNK N   1      39.879  38.900  50.982  0.00  0.00     0.001 A 
HETATM   10  C   UNK N   1      38.756  38.096  51.158  0.00  0.00     0.002 A 
HETATM   11  C   UNK N   1      38.290  37.832  52.442  0.00  0.00     0.024 A 
HETATM   12  C   UNK N   1      38.963  38.352  53.552  0.00  0.00     0.072 A 
HETATM   13  S   UNK N   1      38.330  38.075  55.175  0.00  0.00     0.180 S 
HETATM   14  O   UNK N   1      38.735  36.667  55.636  0.00  0.00    -0.222 OA
HETATM   15  O   UNK N   1      36.797  37.988  55.174  0.00  0.00    -0.222 OA
HETATM   16  C   UNK N   1      38.909  39.281  56.366  0.00  0.00     0.189 C 
ENDROOT
BRANCH   1  17
HETATM   17  C   UNK N   1      43.237  40.029  53.768  0.00  0.00     0.137 C 
HETATM   18  C   UNK N   1      44.434  40.922  54.181  0.00  0.00     0.031 C 
HETATM   19  C   UNK N   1      45.547  40.078  54.797  0.00  0.00     0.032 C 
HETATM   20  C   UNK N   1      46.057  39.089  53.715  0.00  0.00     0.272 C 
HETATM   21  N   UNK N   1      44.968  38.401  52.956  0.00  0.00     0.092 N 
HETATM   22  C   UNK N   1      43.653  38.538  53.602  0.00  0.00     0.299 C 
BRANCH  21  23
HETATM   23  C   UNK N   1      44.936  38.697  51.502  0.00  0.00     0.292 C 
BRANCH  23  24
HETATM   24  C   UNK N   1      45.034  37.395  50.693  0.00  0.00     0.156 C 
BRANCH  24  25
HETATM   25  N   UNK N   1      43.737  36.931  50.226  0.00  0.00    -0.350 N 
HETATM   26  C   UNK N   1      42.955  35.947  50.923  0.00  0.00     0.126 A 
HETATM   27  C   UNK N   1      41.707  35.748  50.033  0.00  0.00     0.029 A 
HETATM   28  C   UNK N   1      41.812  36.760  48.871  0.00  0.00     0.104 A 
HETATM   29  C   UNK N   1      43.139  37.362  49.107  0.00  0.00     0.219 A 
HETATM   30  O   UNK N   1      43.627  38.213  48.377  0.00  0.00    -0.273 OA
ENDBRANCH  24  25
ENDBRANCH  23  24
ENDBRANCH  21  23
ENDBRANCH   1  17
BRANCH   4  31
HETATM   31  C   UNK N   1      41.157  40.541  58.216  0.00  0.00     0.272 C 
HETATM   32  O   UNK N   1      41.730  39.740  58.941  0.00  0.00    -0.266 OA
HETATM   33  N   UNK N   1      40.505  41.609  58.802  0.00  0.00    -0.343 N 
HETATM   34  C   UNK N   1      39.823  42.628  57.998  0.00  0.00     0.152 C 
HETATM   35  C   UNK N   1      40.732  41.842  60.236  0.00  0.00     0.152 C 
HETATM   36  C   UNK N   1      39.003  43.606  58.844  0.00  0.00     0.187 C 
HETATM   37  O   UNK N   1      39.746  44.033  59.965  0.00  0.00    -0.388 OA
HETATM   38  C   UNK N   1      39.840  42.929  60.838  0.00  0.00     0.187 C 
ENDBRANCH   4  31
TORSDOF 5
ENDMDL
MODEL 6
REMARK VINA RESULT:      -7.5      4.482      9.144
REMARK  5 active torsions:
REMARK  status: ('A' for Active; 'I' for Inactive)
REMARK    1  A    between atoms: N_6  and  C_7 
REMARK    2  A    between atoms: C_7  and  C_8 
REMARK    3  A    between atoms: C_8  and  N_9 
REMARK    4  A    between atoms: C_13  and  N_14 
REMARK    5  A    between atoms: C_17  and  C_18 
REMARK       I    between atoms: C_18  and  N_20 
ROOT
HETATM    1  N   UNK N   1      42.066  35.261  48.501  0.00  0.00    -0.284 N 
HETATM    2  N   UNK N   1      43.227  34.988  47.917  0.00  0.00    -0.292 N 
ATOM      3  HN  UNK N   1      44.124  35.397  48.175  1.00  0.00     0.187 HD
HETATM    4  C   UNK N   1      43.035  34.089  46.935  0.00  0.00     0.126 A 
HETATM    5  C   UNK N   1      41.684  33.764  46.893  0.00  0.00     0.019 A 
HETATM    6  C   UNK N   1      41.085  34.500  47.929  0.00  0.00     0.072 A 
HETATM    7  C   UNK N   1      39.609  34.446  48.296  0.00  0.00     0.014 A 
HETATM    8  C   UNK N   1      39.114  34.850  49.559  0.00  0.00     0.015 A 
HETATM    9  C   UNK N   1      37.746  34.787  49.847  0.00  0.00     0.001 A 
HETATM   10  C   UNK N   1      36.846  34.309  48.898  0.00  0.00     0.002 A 
HETATM   11  C   UNK N   1      37.312  33.862  47.666  0.00  0.00     0.024 A 
HETATM   12  C   UNK N   1      38.678  33.917  47.373  0.00  0.00     0.072 A 
HETATM   13  S   UNK N   1      39.276  33.283  45.839  0.00  0.00     0.180 S 
HETATM   14  O   UNK N   1      39.036  34.329  44.739  0.00  0.00    -0.222 OA
HETATM   15  O   UNK N   1      38.429  32.099  45.351  0.00  0.00    -0.222 OA
HETATM   16  C   UNK N   1      41.015  32.859  45.888  0.00  0.00     0.189 C 
ENDROOT
BRANCH   1  17
HETATM   17  C   UNK N   1      41.950  36.368  49.473  0.00  0.00     0.137 C 
HETATM   18  C   UNK N   1      42.866  36.148  50.704  0.00  0.00     0.031 C 
HETATM   19  C   UNK N   1      44.124  37.006  50.597  0.00  0.00     0.032 C 
HETATM   20  C   UNK N   1      43.692  38.498  50.600  0.00  0.00     0.272 C 
HETATM   21  N   UNK N   1      42.536  38.798  49.701  0.00  0.00     0.092 N 
HETATM   22  C   UNK N   1      42.259  37.711  48.750  0.00  0.00     0.299 C 
BRANCH  21  23
HETATM   23  C   UNK N   1      41.319  39.292  50.392  0.00  0.00     0.292 C 
BRANCH  23  24
HETATM   24  C   UNK N   1      40.094  39.151  49.476  0.00  0.00     0.156 C 
BRANCH  24  25
HETATM   25  N   UNK N   1      38.914  38.695  50.193  0.00  0.00    -0.350 N 
HETATM   26  C   UNK N   1      38.943  38.266  51.564  0.00  0.00     0.126 A 
HETATM   27  C   UNK N   1      37.489  37.834  51.862  0.00  0.00     0.029 A 
HETATM   28  C   UNK N   1      36.653  38.155  50.604  0.00  0.00     0.104 A 
HETATM   29  C   UNK N   1      37.688  38.620  49.659  0.00  0.00     0.219 A 
HETATM   30  O   UNK N   1      37.441  38.955  48.509  0.00  0.00    -0.273 OA
ENDBRANCH  24  25
ENDBRANCH  23  24
ENDBRANCH  21  23
ENDBRANCH   1  17
BRANCH   4  31
HETATM   31  C   UNK N   1      44.091  33.633  45.964  0.00  0.00     0.272 C 
HETATM   32  O   UNK N   1      43.921  33.896  44.782  0.00  0.00    -0.266 OA
HETATM   33  N   UNK N   1      45.251  32.978  46.331  0.00  0.00    -0.343 N 
HETATM   34  C   UNK N   1      45.541  32.658  47.733  0.00  0.00     0.152 C 
HETATM   35  C   UNK N   1      46.307  32.843  45.318  0.00  0.00     0.152 C 
HETATM   36  C   UNK N   1      46.772  31.763  47.897  0.00  0.00     0.187 C 
HETATM   37  O   UNK N   1      47.832  32.227  47.089  0.00  0.00    -0.388 OA
HETATM   38  C   UNK N   1      47.475  31.957  45.752  0.00  0.00     0.187 C 
ENDBRANCH   4  31
TORSDOF 5
ENDMDL
MODEL 7
REMARK VINA RESULT:      -7.5      2.677      4.839
REMARK  5 active torsions:
REMARK  status: ('A' for Active; 'I' for Inactive)
REMARK    1  A    between atoms: N_6  and  C_7 
REMARK    2  A    between atoms: C_7  and  C_8 
REMARK    3  A    between atoms: C_8  and  N_9 
REMARK    4  A    between atoms: C_13  and  N_14 
REMARK    5  A    between atoms: C_17  and  C_18 
REMARK       I    between atoms: C_18  and  N_20 
ROOT
HETATM    1  N   UNK N   1      41.461  39.840  53.005  0.00  0.00    -0.284 N 
HETATM    2  N   UNK N   1      40.480  40.047  53.874  0.00  0.00    -0.292 N 
ATOM      3  HN  UNK N   1      40.573  40.550  54.756  1.00  0.00     0.187 HD
HETATM    4  C   UNK N   1      39.345  39.491  53.413  0.00  0.00     0.126 A 
HETATM    5  C   UNK N   1      39.612  38.904  52.181  0.00  0.00     0.019 A 
HETATM    6  C   UNK N   1      40.967  39.170  51.920  0.00  0.00     0.072 A 
HETATM    7  C   UNK N   1      41.710  38.750  50.660  0.00  0.00     0.014 A 
HETATM    8  C   UNK N   1      42.913  39.365  50.235  0.00  0.00     0.015 A 
HETATM    9  C   UNK N   1      43.563  38.939  49.071  0.00  0.00     0.001 A 
HETATM   10  C   UNK N   1      43.029  37.910  48.300  0.00  0.00     0.002 A 
HETATM   11  C   UNK N   1      41.825  37.322  48.671  0.00  0.00     0.024 A 
HETATM   12  C   UNK N   1      41.166  37.745  49.829  0.00  0.00     0.072 A 
HETATM   13  S   UNK N   1      39.604  37.047  50.259  0.00  0.00     0.180 S 
HETATM   14  O   UNK N   1      39.833  35.685  50.932  0.00  0.00    -0.222 OA
HETATM   15  O   UNK N   1      38.798  36.660  49.011  0.00  0.00    -0.222 OA
HETATM   16  C   UNK N   1      38.646  38.096  51.350  0.00  0.00     0.189 C 
ENDROOT
BRANCH   1  17
HETATM   17  C   UNK N   1      42.861  40.162  53.352  0.00  0.00     0.137 C 
HETATM   18  C   UNK N   1      42.943  41.300  54.401  0.00  0.00     0.031 C 
HETATM   19  C   UNK N   1      43.229  40.731  55.789  0.00  0.00     0.032 C 
HETATM   20  C   UNK N   1      44.618  40.036  55.748  0.00  0.00     0.272 C 
HETATM   21  N   UNK N   1      44.825  39.161  54.554  0.00  0.00     0.092 N 
HETATM   22  C   UNK N   1      43.572  38.867  53.841  0.00  0.00     0.299 C 
BRANCH  21  23
HETATM   23  C   UNK N   1      45.923  39.586  53.650  0.00  0.00     0.292 C 
BRANCH  23  24
HETATM   24  C   UNK N   1      46.794  38.380  53.269  0.00  0.00     0.156 C 
BRANCH  24  25
HETATM   25  N   UNK N   1      47.227  38.424  51.881  0.00  0.00    -0.350 N 
HETATM   26  C   UNK N   1      48.440  39.065  51.455  0.00  0.00     0.126 A 
HETATM   27  C   UNK N   1      48.444  38.897  49.918  0.00  0.00     0.029 A 
HETATM   28  C   UNK N   1      47.216  38.034  49.553  0.00  0.00     0.104 A 
HETATM   29  C   UNK N   1      46.548  37.882  50.861  0.00  0.00     0.219 A 
HETATM   30  O   UNK N   1      45.498  37.273  51.008  0.00  0.00    -0.273 OA
ENDBRANCH  24  25
ENDBRANCH  23  24
ENDBRANCH  21  23
ENDBRANCH   1  17
BRANCH   4  31
HETATM   31  C   UNK N   1      38.053  39.403  54.179  0.00  0.00     0.272 C 
HETATM   32  O   UNK N   1      37.176  40.208  53.898  0.00  0.00    -0.266 OA
HETATM   33  N   UNK N   1      37.785  38.449  55.141  0.00  0.00    -0.343 N 
HETATM   34  C   UNK N   1      38.774  37.431  55.509  0.00  0.00     0.152 C 
HETATM   35  C   UNK N   1      36.395  38.317  55.602  0.00  0.00     0.152 C 
HETATM   36  C   UNK N   1      38.353  36.603  56.726  0.00  0.00     0.187 C 
HETATM   37  O   UNK N   1      37.003  36.206  56.611  0.00  0.00    -0.388 OA
HETATM   38  C   UNK N   1      36.221  37.366  56.786  0.00  0.00     0.187 C 
ENDBRANCH   4  31
TORSDOF 5
ENDMDL
MODEL 8
REMARK VINA RESULT:      -7.4      3.913      7.499
REMARK  5 active torsions:
REMARK  status: ('A' for Active; 'I' for Inactive)
REMARK    1  A    between atoms: N_6  and  C_7 
REMARK    2  A    between atoms: C_7  and  C_8 
REMARK    3  A    between atoms: C_8  and  N_9 
REMARK    4  A    between atoms: C_13  and  N_14 
REMARK    5  A    between atoms: C_17  and  C_18 
REMARK       I    between atoms: C_18  and  N_20 
ROOT
HETATM    1  N   UNK N   1      40.625  35.801  49.389  0.00  0.00    -0.284 N 
HETATM    2  N   UNK N   1      41.374  35.424  48.361  0.00  0.00    -0.292 N 
ATOM      3  HN  UNK N   1      42.326  35.744  48.178  1.00  0.00     0.187 HD
HETATM    4  C   UNK N   1      40.686  34.558  47.597  0.00  0.00     0.126 A 
HETATM    5  C   UNK N   1      39.434  34.364  48.171  0.00  0.00     0.019 A 
HETATM    6  C   UNK N   1      39.428  35.144  49.339  0.00  0.00     0.072 A 
HETATM    7  C   UNK N   1      38.271  35.227  50.325  0.00  0.00     0.014 A 
HETATM    8  C   UNK N   1      38.430  35.665  51.662  0.00  0.00     0.015 A 
HETATM    9  C   UNK N   1      37.333  35.731  52.529  0.00  0.00     0.001 A 
HETATM   10  C   UNK N   1      36.066  35.350  52.096  0.00  0.00     0.002 A 
HETATM   11  C   UNK N   1      35.893  34.872  50.801  0.00  0.00     0.024 A 
HETATM   12  C   UNK N   1      36.984  34.799  49.931  0.00  0.00     0.072 A 
HETATM   13  S   UNK N   1      36.776  34.125  48.313  0.00  0.00     0.180 S 
HETATM   14  O   UNK N   1      36.166  35.199  47.399  0.00  0.00    -0.222 OA
HETATM   15  O   UNK N   1      35.698  33.032  48.293  0.00  0.00    -0.222 OA
HETATM   16  C   UNK N   1      38.309  33.536  47.598  0.00  0.00     0.189 C 
ENDROOT
BRANCH   1  17
HETATM   17  C   UNK N   1      41.054  36.905  50.274  0.00  0.00     0.137 C 
HETATM   18  C   UNK N   1      42.375  36.568  51.011  0.00  0.00     0.031 C 
HETATM   19  C   UNK N   1      43.555  37.274  50.348  0.00  0.00     0.032 C 
HETATM   20  C   UNK N   1      43.332  38.806  50.473  0.00  0.00     0.272 C 
HETATM   21  N   UNK N   1      41.945  39.249  50.133  0.00  0.00     0.092 N 
HETATM   22  C   UNK N   1      41.173  38.210  49.433  0.00  0.00     0.299 C 
BRANCH  21  23
HETATM   23  C   UNK N   1      41.198  39.875  51.251  0.00  0.00     0.292 C 
BRANCH  23  24
HETATM   24  C   UNK N   1      42.030  39.823  52.541  0.00  0.00     0.156 C 
BRANCH  24  25
HETATM   25  N   UNK N   1      41.267  39.324  53.675  0.00  0.00    -0.350 N 
HETATM   26  C   UNK N   1      39.869  39.000  53.601  0.00  0.00     0.126 A 
HETATM   27  C   UNK N   1      39.499  38.570  55.039  0.00  0.00     0.029 A 
HETATM   28  C   UNK N   1      40.803  38.578  55.866  0.00  0.00     0.104 A 
HETATM   29  C   UNK N   1      41.776  39.120  54.897  0.00  0.00     0.219 A 
HETATM   30  O   UNK N   1      42.952  39.316  55.169  0.00  0.00    -0.273 OA
ENDBRANCH  24  25
ENDBRANCH  23  24
ENDBRANCH  21  23
ENDBRANCH   1  17
BRANCH   4  31
HETATM   31  C   UNK N   1      41.153  34.012  46.275  0.00  0.00     0.272 C 
HETATM   32  O   UNK N   1      40.547  34.366  45.273  0.00  0.00    -0.266 OA
HETATM   33  N   UNK N   1      42.242  33.176  46.122  0.00  0.00    -0.343 N 
HETATM   34  C   UNK N   1      43.037  32.734  47.272  0.00  0.00     0.152 C 
HETATM   35  C   UNK N   1      42.741  32.949  44.758  0.00  0.00     0.152 C 
HETATM   36  C   UNK N   1      44.068  31.662  46.908  0.00  0.00     0.187 C 
HETATM   37  O   UNK N   1      44.751  32.015  45.724  0.00  0.00    -0.388 OA
HETATM   38  C   UNK N   1      43.830  31.879  44.665  0.00  0.00     0.187 C 
ENDBRANCH   4  31
TORSDOF 5
ENDMDL
MODEL 9
REMARK VINA RESULT:      -7.4      2.946      5.669
REMARK  5 active torsions:
REMARK  status: ('A' for Active; 'I' for Inactive)
REMARK    1  A    between atoms: N_6  and  C_7 
REMARK    2  A    between atoms: C_7  and  C_8 
REMARK    3  A    between atoms: C_8  and  N_9 
REMARK    4  A    between atoms: C_13  and  N_14 
REMARK    5  A    between atoms: C_17  and  C_18 
REMARK       I    between atoms: C_18  and  N_20 
ROOT
HETATM    1  N   UNK N   1      41.848  40.120  54.020  0.00  0.00    -0.284 N 
HETATM    2  N   UNK N   1      41.796  40.549  55.275  0.00  0.00    -0.292 N 
ATOM      3  HN  UNK N   1      42.589  40.902  55.808  1.00  0.00     0.187 HD
HETATM    4  C   UNK N   1      40.535  40.445  55.733  0.00  0.00     0.126 A 
HETATM    5  C   UNK N   1      39.739  39.929  54.716  0.00  0.00     0.019 A 
HETATM    6  C   UNK N   1      40.593  39.761  53.614  0.00  0.00     0.072 A 
HETATM    7  C   UNK N   1      40.162  39.248  52.248  0.00  0.00     0.014 A 
HETATM    8  C   UNK N   1      40.912  39.474  51.069  0.00  0.00     0.015 A 
HETATM    9  C   UNK N   1      40.477  38.977  49.835  0.00  0.00     0.001 A 
HETATM   10  C   UNK N   1      39.285  38.263  49.742  0.00  0.00     0.002 A 
HETATM   11  C   UNK N   1      38.506  38.068  50.878  0.00  0.00     0.024 A 
HETATM   12  C   UNK N   1      38.932  38.566  52.113  0.00  0.00     0.072 A 
HETATM   13  S   UNK N   1      37.908  38.380  53.538  0.00  0.00     0.180 S 
HETATM   14  O   UNK N   1      38.080  36.958  54.094  0.00  0.00    -0.222 OA
HETATM   15  O   UNK N   1      36.418  38.406  53.168  0.00  0.00    -0.222 OA
HETATM   16  C   UNK N   1      38.277  39.570  54.824  0.00  0.00     0.189 C 
ENDROOT
BRANCH   1  17
HETATM   17  C   UNK N   1      43.147  39.928  53.340  0.00  0.00     0.137 C 
HETATM   18  C   UNK N   1      44.205  40.948  53.829  0.00  0.00     0.031 C 
HETATM   19  C   UNK N   1      45.166  40.291  54.818  0.00  0.00     0.032 C 
HETATM   20  C   UNK N   1      45.923  39.157  54.074  0.00  0.00     0.272 C 
HETATM   21  N   UNK N   1      45.042  38.285  53.237  0.00  0.00     0.092 N 
HETATM   22  C   UNK N   1      43.614  38.458  53.546  0.00  0.00     0.299 C 
BRANCH  21  23
HETATM   23  C   UNK N   1      45.332  38.318  51.782  0.00  0.00     0.292 C 
BRANCH  23  24
HETATM   24  C   UNK N   1      44.412  37.340  51.036  0.00  0.00     0.156 C 
BRANCH  24  25
HETATM   25  N   UNK N   1      43.990  37.852  49.741  0.00  0.00    -0.350 N 
HETATM   26  C   UNK N   1      44.321  39.169  49.270  0.00  0.00     0.126 A 
HETATM   27  C   UNK N   1      43.623  39.271  47.895  0.00  0.00     0.029 A 
HETATM   28  C   UNK N   1      42.986  37.894  47.606  0.00  0.00     0.104 A 
HETATM   29  C   UNK N   1      43.253  37.163  48.860  0.00  0.00     0.219 A 
HETATM   30  O   UNK N   1      42.880  36.015  49.058  0.00  0.00    -0.273 OA
ENDBRANCH  24  25
ENDBRANCH  23  24
ENDBRANCH  21  23
ENDBRANCH   1  17
BRANCH   4  31
HETATM   31  C   UNK N   1      40.107  40.710  57.151  0.00  0.00     0.272 C 
HETATM   32  O   UNK N   1      39.927  41.875  57.476  0.00  0.00    -0.266 OA
HETATM   33  N   UNK N   1      39.866  39.722  58.086  0.00  0.00    -0.343 N 
HETATM   34  C   UNK N   1      40.029  38.301  57.761  0.00  0.00     0.152 C 
HETATM   35  C   UNK N   1      39.193  40.113  59.333  0.00  0.00     0.152 C 
HETATM   36  C   UNK N   1      39.905  37.391  58.985  0.00  0.00     0.187 C 
HETATM   37  O   UNK N   1      38.797  37.769  59.772  0.00  0.00    -0.388 OA
HETATM   38  C   UNK N   1      39.126  38.999  60.379  0.00  0.00     0.187 C 
ENDBRANCH   4  31
TORSDOF 5
ENDMDL
