MODEL 1
REMARK VINA RESULT:      -8.1      0.000      0.000
REMARK  5 active torsions:
REMARK  status: ('A' for Active; 'I' for Inactive)
REMARK    1  A    between atoms: C_2  and  C_3 
REMARK       I    between atoms: C_2  and  N_32 
REMARK    2  A    between atoms: N_6  and  C_7 
REMARK    3  A    between atoms: N_10  and  C_11 
REMARK    4  A    between atoms: C_11  and  C_12 
REMARK    5  A    between atoms: C_12  and  C_13 
ROOT
HETATM    1  C   UNK N   1      39.001  38.589  52.589  0.00  0.00     0.126 A 
HETATM    2  N   UNK N   1      40.209  38.544  51.993  0.00  0.00    -0.292 N 
ATOM      3  HN  UNK N   1      40.393  38.185  51.056  1.00  0.00     0.187 HD
HETATM    4  N   UNK N   1      41.120  39.041  52.821  0.00  0.00    -0.284 N 
HETATM    5  C   UNK N   1      40.515  39.411  53.987  0.00  0.00     0.072 A 
HETATM    6  C   UNK N   1      39.142  39.177  53.838  0.00  0.00     0.019 A 
HETATM    7  C   UNK N   1      38.023  39.530  54.785  0.00  0.00     0.189 C 
HETATM    8  S   UNK N   1      38.653  40.728  55.969  0.00  0.00     0.180 S 
HETATM    9  O   UNK N   1      38.332  42.152  55.488  0.00  0.00    -0.222 OA
HETATM   10  O   UNK N   1      37.885  40.656  57.297  0.00  0.00    -0.222 OA
HETATM   11  C   UNK N   1      40.395  40.595  56.232  0.00  0.00     0.072 A 
HETATM   12  C   UNK N   1      40.970  41.087  57.409  0.00  0.00     0.024 A 
HETATM   13  C   UNK N   1      42.333  40.918  57.642  0.00  0.00     0.002 A 
HETATM   14  C   UNK N   1      43.117  40.243  56.711  0.00  0.00     0.001 A 
HETATM   15  C   UNK N   1      42.551  39.759  55.529  0.00  0.00     0.015 A 
HETATM   16  C   UNK N   1      41.176  39.951  55.247  0.00  0.00     0.014 A 
ENDROOT
BRANCH   4  17
HETATM   17  C   UNK N   1      42.513  39.308  52.409  0.00  0.00     0.138 C 
HETATM   18  C   UNK N   1      43.453  38.160  52.730  0.00  0.00     0.059 C 
HETATM   19  C   UNK N   1      43.156  37.176  51.614  0.00  0.00     0.274 C 
HETATM   20  N   UNK N   1      42.884  37.992  50.418  0.00  0.00     0.090 N 
HETATM   21  C   UNK N   1      42.664  39.380  50.887  0.00  0.00     0.299 C 
BRANCH  20  22
HETATM   22  C   UNK N   1      43.868  37.815  49.318  0.00  0.00     0.273 C 
BRANCH  22  23
HETATM   23  C   UNK N   1      45.173  37.073  49.717  0.00  0.00     0.035 C 
BRANCH  23  24
HETATM   24  C   UNK N   1      46.348  38.016  50.039  0.00  0.00    -0.009 C 
HETATM   25  C   UNK N   1      46.594  38.198  51.560  0.00  0.00     0.031 C 
HETATM   26  C   UNK N   1      48.077  38.518  51.858  0.00  0.00     0.168 C 
HETATM   27  O   UNK N   1      48.636  39.343  50.859  0.00  0.00    -0.391 OA
HETATM   28  C   UNK N   1      48.703  38.668  49.597  0.00  0.00     0.168 C 
HETATM   29  C   UNK N   1      47.654  37.539  49.394  0.00  0.00     0.031 C 
ENDBRANCH  23  24
ENDBRANCH  22  23
ENDBRANCH  20  22
ENDBRANCH   4  17
BRANCH   1  30
HETATM   30  C   UNK N   1      37.722  38.075  51.997  0.00  0.00     0.272 C 
HETATM   31  O   UNK N   1      37.121  38.813  51.227  0.00  0.00    -0.266 OA
HETATM   32  N   UNK N   1      37.192  36.834  52.278  0.00  0.00    -0.343 N 
HETATM   33  C   UNK N   1      37.880  35.901  53.177  0.00  0.00     0.152 C 
HETATM   34  C   UNK N   1      35.841  36.530  51.784  0.00  0.00     0.152 C 
HETATM   35  C   UNK N   1      37.260  34.503  53.177  0.00  0.00     0.187 C 
HETATM   36  O   UNK N   1      35.852  34.590  53.234  0.00  0.00    -0.388 OA
HETATM   37  C   UNK N   1      35.424  35.070  51.978  0.00  0.00     0.187 C 
ENDBRANCH   1  30
TORSDOF 5
ENDMDL
MODEL 2
REMARK VINA RESULT:      -8.1      3.021      3.711
REMARK  5 active torsions:
REMARK  status: ('A' for Active; 'I' for Inactive)
REMARK    1  A    between atoms: C_2  and  C_3 
REMARK       I    between atoms: C_2  and  N_32 
REMARK    2  A    between atoms: N_6  and  C_7 
REMARK    3  A    between atoms: N_10  and  C_11 
REMARK    4  A    between atoms: C_11  and  C_12 
REMARK    5  A    between atoms: C_12  and  C_13 
ROOT
HETATM    1  C   UNK N   1      38.702  37.741  51.684  0.00  0.00     0.126 A 
HETATM    2  N   UNK N   1      39.696  37.443  50.823  0.00  0.00    -0.292 N 
ATOM      3  HN  UNK N   1      39.587  36.930  49.948  1.00  0.00     0.187 HD
HETATM    4  N   UNK N   1      40.838  37.925  51.297  0.00  0.00    -0.284 N 
HETATM    5  C   UNK N   1      40.607  38.540  52.493  0.00  0.00     0.072 A 
HETATM    6  C   UNK N   1      39.229  38.479  52.734  0.00  0.00     0.019 A 
HETATM    7  C   UNK N   1      38.443  39.117  53.853  0.00  0.00     0.189 C 
HETATM    8  S   UNK N   1      39.480  40.376  54.612  0.00  0.00     0.180 S 
HETATM    9  O   UNK N   1      39.179  41.746  53.982  0.00  0.00    -0.222 OA
HETATM   10  O   UNK N   1      39.093  40.606  56.080  0.00  0.00    -0.222 OA
HETATM   11  C   UNK N   1      41.208  40.044  54.451  0.00  0.00     0.072 A 
HETATM   12  C   UNK N   1      42.122  40.617  55.341  0.00  0.00     0.024 A 
HETATM   13  C   UNK N   1      43.475  40.298  55.254  0.00  0.00     0.002 A 
HETATM   14  C   UNK N   1      43.912  39.392  54.291  0.00  0.00     0.001 A 
HETATM   15  C   UNK N   1      43.005  38.824  53.392  0.00  0.00     0.015 A 
HETATM   16  C   UNK N   1      41.631  39.162  53.432  0.00  0.00     0.014 A 
ENDROOT
BRANCH   4  17
HETATM   17  C   UNK N   1      42.089  37.934  50.510  0.00  0.00     0.138 C 
HETATM   18  C   UNK N   1      43.067  36.858  50.947  0.00  0.00     0.059 C 
HETATM   19  C   UNK N   1      42.493  35.614  50.295  0.00  0.00     0.274 C 
HETATM   20  N   UNK N   1      41.941  36.054  49.002  0.00  0.00     0.090 N 
HETATM   21  C   UNK N   1      41.859  37.533  49.051  0.00  0.00     0.299 C 
BRANCH  20  22
HETATM   22  C   UNK N   1      42.620  35.470  47.815  0.00  0.00     0.273 C 
BRANCH  22  23
HETATM   23  C   UNK N   1      43.410  34.161  48.088  0.00  0.00     0.035 C 
BRANCH  23  24
HETATM   24  C   UNK N   1      44.142  33.609  46.849  0.00  0.00    -0.009 C 
HETATM   25  C   UNK N   1      45.688  33.650  46.976  0.00  0.00     0.031 C 
HETATM   26  C   UNK N   1      46.353  32.535  46.138  0.00  0.00     0.168 C 
HETATM   27  O   UNK N   1      45.661  32.318  44.928  0.00  0.00    -0.391 OA
HETATM   28  C   UNK N   1      44.345  31.801  45.160  0.00  0.00     0.168 C 
HETATM   29  C   UNK N   1      43.723  32.169  46.536  0.00  0.00     0.031 C 
ENDBRANCH  23  24
ENDBRANCH  22  23
ENDBRANCH  20  22
ENDBRANCH   4  17
BRANCH   1  30
HETATM   30  C   UNK N   1      37.268  37.328  51.530  0.00  0.00     0.272 C 
HETATM   31  O   UNK N   1      36.540  38.056  50.867  0.00  0.00    -0.266 OA
HETATM   32  N   UNK N   1      36.733  36.190  52.095  0.00  0.00    -0.343 N 
HETATM   33  C   UNK N   1      37.564  35.272  52.881  0.00  0.00     0.152 C 
HETATM   34  C   UNK N   1      35.277  36.003  52.028  0.00  0.00     0.152 C 
HETATM   35  C   UNK N   1      36.849  33.963  53.222  0.00  0.00     0.187 C 
HETATM   36  O   UNK N   1      35.528  34.221  53.648  0.00  0.00    -0.388 OA
HETATM   37  C   UNK N   1      34.806  34.627  52.507  0.00  0.00     0.187 C 
ENDBRANCH   1  30
TORSDOF 5
ENDMDL
MODEL 3
REMARK VINA RESULT:      -8.1      4.754      6.857
REMARK  5 active torsions:
REMARK  status: ('A' for Active; 'I' for Inactive)
REMARK    1  A    between atoms: C_2  and  C_3 
REMARK       I    between atoms: C_2  and  N_32 
REMARK    2  A    between atoms: N_6  and  C_7 
REMARK    3  A    between atoms: N_10  and  C_11 
REMARK    4  A    between atoms: C_11  and  C_12 
REMARK    5  A    between atoms: C_12  and  C_13 
ROOT
HETATM    1  C   UNK N   1      39.139  34.923  49.414  0.00  0.00     0.126 A 
HETATM    2  N   UNK N   1      40.167  34.275  48.830  0.00  0.00    -0.292 N 
ATOM      3  HN  UNK N   1      40.088  33.438  48.252  1.00  0.00     0.187 HD
HETATM    4  N   UNK N   1      41.299  34.901  49.127  0.00  0.00    -0.284 N 
HETATM    5  C   UNK N   1      41.025  35.971  49.929  0.00  0.00     0.072 A 
HETATM    6  C   UNK N   1      39.634  36.034  50.082  0.00  0.00     0.019 A 
HETATM    7  C   UNK N   1      38.813  37.096  50.767  0.00  0.00     0.189 C 
HETATM    8  S   UNK N   1      39.852  38.548  50.984  0.00  0.00     0.180 S 
HETATM    9  O   UNK N   1      39.638  39.520  49.812  0.00  0.00    -0.222 OA
HETATM   10  O   UNK N   1      39.393  39.388  52.185  0.00  0.00    -0.222 OA
HETATM   11  C   UNK N   1      41.572  38.161  51.095  0.00  0.00     0.072 A 
HETATM   12  C   UNK N   1      42.456  39.051  51.715  0.00  0.00     0.024 A 
HETATM   13  C   UNK N   1      43.799  38.711  51.861  0.00  0.00     0.002 A 
HETATM   14  C   UNK N   1      44.255  37.477  51.407  0.00  0.00     0.001 A 
HETATM   15  C   UNK N   1      43.379  36.588  50.778  0.00  0.00     0.015 A 
HETATM   16  C   UNK N   1      42.018  36.924  50.579  0.00  0.00     0.014 A 
ENDROOT
BRANCH   4  17
HETATM   17  C   UNK N   1      42.591  34.561  48.497  0.00  0.00     0.138 C 
HETATM   18  C   UNK N   1      42.657  33.117  48.031  0.00  0.00     0.059 C 
HETATM   19  C   UNK N   1      41.867  33.156  46.737  0.00  0.00     0.274 C 
HETATM   20  N   UNK N   1      42.167  34.462  46.121  0.00  0.00     0.090 N 
HETATM   21  C   UNK N   1      42.799  35.295  47.170  0.00  0.00     0.299 C 
BRANCH  20  22
HETATM   22  C   UNK N   1      42.885  34.376  44.823  0.00  0.00     0.273 C 
BRANCH  22  23
HETATM   23  C   UNK N   1      41.999  34.000  43.604  0.00  0.00     0.035 C 
BRANCH  23  24
HETATM   24  C   UNK N   1      40.608  34.665  43.621  0.00  0.00    -0.009 C 
HETATM   25  C   UNK N   1      40.533  35.960  42.769  0.00  0.00     0.031 C 
HETATM   26  C   UNK N   1      39.104  36.202  42.235  0.00  0.00     0.168 C 
HETATM   27  O   UNK N   1      38.129  35.815  43.179  0.00  0.00    -0.391 OA
HETATM   28  C   UNK N   1      38.150  34.400  43.405  0.00  0.00     0.168 C 
HETATM   29  C   UNK N   1      39.514  33.707  43.137  0.00  0.00     0.031 C 
ENDBRANCH  23  24
ENDBRANCH  22  23
ENDBRANCH  20  22
ENDBRANCH   4  17
BRANCH   1  30
HETATM   30  C   UNK N   1      37.702  34.498  49.356  0.00  0.00     0.272 C 
HETATM   31  O   UNK N   1      37.101  34.684  48.305  0.00  0.00    -0.266 OA
HETATM   32  N   UNK N   1      37.029  33.923  50.413  0.00  0.00    -0.343 N 
HETATM   33  C   UNK N   1      37.704  33.659  51.688  0.00  0.00     0.152 C 
HETATM   34  C   UNK N   1      35.577  33.732  50.288  0.00  0.00     0.152 C 
HETATM   35  C   UNK N   1      36.863  32.813  52.646  0.00  0.00     0.187 C 
HETATM   36  O   UNK N   1      35.529  33.274  52.665  0.00  0.00    -0.388 OA
HETATM   37  C   UNK N   1      34.958  32.915  51.425  0.00  0.00     0.187 C 
ENDBRANCH   1  30
TORSDOF 5
ENDMDL
MODEL 4
REMARK VINA RESULT:      -8.0      3.411      5.026
REMARK  5 active torsions:
REMARK  status: ('A' for Active; 'I' for Inactive)
REMARK    1  A    between atoms: C_2  and  C_3 
REMARK       I    between atoms: C_2  and  N_32 
REMARK    2  A    between atoms: N_6  and  C_7 
REMARK    3  A    between atoms: N_10  and  C_11 
REMARK    4  A    between atoms: C_11  and  C_12 
REMARK    5  A    between atoms: C_12  and  C_13 
ROOT
HETATM    1  C   UNK N   1      40.327  38.767  54.092  0.00  0.00     0.126 A 
HETATM    2  N   UNK N   1      40.557  38.485  52.795  0.00  0.00    -0.292 N 
ATOM      3  HN  UNK N   1      39.847  38.215  52.113  1.00  0.00     0.187 HD
HETATM    4  N   UNK N   1      41.854  38.615  52.546  0.00  0.00    -0.284 N 
HETATM    5  C   UNK N   1      42.500  38.976  53.693  0.00  0.00     0.072 A 
HETATM    6  C   UNK N   1      41.526  39.131  54.688  0.00  0.00     0.019 A 
HETATM    7  C   UNK N   1      41.700  39.639  56.098  0.00  0.00     0.189 C 
HETATM    8  S   UNK N   1      43.293  40.467  56.198  0.00  0.00     0.180 S 
HETATM    9  O   UNK N   1      43.110  41.975  55.966  0.00  0.00    -0.222 OA
HETATM   10  O   UNK N   1      43.852  40.428  57.628  0.00  0.00    -0.222 OA
HETATM   11  C   UNK N   1      44.471  39.850  55.035  0.00  0.00     0.072 A 
HETATM   12  C   UNK N   1      45.841  40.017  55.264  0.00  0.00     0.024 A 
HETATM   13  C   UNK N   1      46.768  39.470  54.379  0.00  0.00     0.002 A 
HETATM   14  C   UNK N   1      46.327  38.739  53.279  0.00  0.00     0.001 A 
HETATM   15  C   UNK N   1      44.960  38.577  53.040  0.00  0.00     0.015 A 
HETATM   16  C   UNK N   1      43.996  39.157  53.900  0.00  0.00     0.014 A 
ENDROOT
BRANCH   4  17
HETATM   17  C   UNK N   1      42.416  38.560  51.180  0.00  0.00     0.138 C 
HETATM   18  C   UNK N   1      43.487  37.495  51.027  0.00  0.00     0.059 C 
HETATM   19  C   UNK N   1      42.666  36.225  50.900  0.00  0.00     0.274 C 
HETATM   20  N   UNK N   1      41.457  36.600  50.145  0.00  0.00     0.090 N 
HETATM   21  C   UNK N   1      41.389  38.079  50.151  0.00  0.00     0.299 C 
BRANCH  20  22
HETATM   22  C   UNK N   1      41.333  35.938  48.820  0.00  0.00     0.273 C 
BRANCH  22  23
HETATM   23  C   UNK N   1      41.490  34.393  48.839  0.00  0.00     0.035 C 
BRANCH  23  24
HETATM   24  C   UNK N   1      42.751  33.889  48.111  0.00  0.00    -0.009 C 
HETATM   25  C   UNK N   1      43.407  32.658  48.792  0.00  0.00     0.031 C 
HETATM   26  C   UNK N   1      44.161  31.781  47.767  0.00  0.00     0.168 C 
HETATM   27  O   UNK N   1      44.787  32.569  46.778  0.00  0.00    -0.391 OA
HETATM   28  C   UNK N   1      43.827  33.253  45.965  0.00  0.00     0.168 C 
HETATM   29  C   UNK N   1      42.459  33.531  46.649  0.00  0.00     0.031 C 
ENDBRANCH  23  24
ENDBRANCH  22  23
ENDBRANCH  20  22
ENDBRANCH   4  17
BRANCH   1  30
HETATM   30  C   UNK N   1      38.994  38.687  54.775  0.00  0.00     0.272 C 
HETATM   31  O   UNK N   1      38.612  37.581  55.138  0.00  0.00    -0.266 OA
HETATM   32  N   UNK N   1      38.183  39.778  55.004  0.00  0.00    -0.343 N 
HETATM   33  C   UNK N   1      38.598  41.128  54.608  0.00  0.00     0.152 C 
HETATM   34  C   UNK N   1      36.822  39.537  55.506  0.00  0.00     0.152 C 
HETATM   35  C   UNK N   1      37.677  42.221  55.152  0.00  0.00     0.187 C 
HETATM   36  O   UNK N   1      36.324  41.849  54.989  0.00  0.00    -0.388 OA
HETATM   37  C   UNK N   1      36.075  40.810  55.910  0.00  0.00     0.187 C 
ENDBRANCH   1  30
TORSDOF 5
ENDMDL
MODEL 5
REMARK VINA RESULT:      -8.0      5.330      9.234
REMARK  5 active torsions:
REMARK  status: ('A' for Active; 'I' for Inactive)
REMARK    1  A    between atoms: C_2  and  C_3 
REMARK       I    between atoms: C_2  and  N_32 
REMARK    2  A    between atoms: N_6  and  C_7 
REMARK    3  A    between atoms: N_10  and  C_11 
REMARK    4  A    between atoms: C_11  and  C_12 
REMARK    5  A    between atoms: C_12  and  C_13 
ROOT
HETATM    1  C   UNK N   1      40.617  34.778  48.115  0.00  0.00     0.126 A 
HETATM    2  N   UNK N   1      39.471  34.328  48.664  0.00  0.00    -0.292 N 
ATOM      3  HN  UNK N   1      38.924  33.536  48.326  1.00  0.00     0.187 HD
HETATM    4  N   UNK N   1      39.170  35.081  49.715  0.00  0.00    -0.284 N 
HETATM    5  C   UNK N   1      40.118  36.052  49.862  0.00  0.00     0.072 A 
HETATM    6  C   UNK N   1      41.087  35.841  48.873  0.00  0.00     0.019 A 
HETATM    7  C   UNK N   1      42.400  36.557  48.679  0.00  0.00     0.189 C 
HETATM    8  S   UNK N   1      42.777  37.446  50.197  0.00  0.00     0.180 S 
HETATM    9  O   UNK N   1      43.687  36.586  51.089  0.00  0.00    -0.222 OA
HETATM   10  O   UNK N   1      43.663  38.670  49.920  0.00  0.00    -0.222 OA
HETATM   11  C   UNK N   1      41.337  37.894  51.116  0.00  0.00     0.072 A 
HETATM   12  C   UNK N   1      41.385  38.952  52.029  0.00  0.00     0.024 A 
HETATM   13  C   UNK N   1      40.230  39.347  52.701  0.00  0.00     0.002 A 
HETATM   14  C   UNK N   1      39.025  38.697  52.447  0.00  0.00     0.001 A 
HETATM   15  C   UNK N   1      38.973  37.633  51.543  0.00  0.00     0.015 A 
HETATM   16  C   UNK N   1      40.139  37.185  50.877  0.00  0.00     0.014 A 
ENDROOT
BRANCH   4  17
HETATM   17  C   UNK N   1      38.078  34.745  50.652  0.00  0.00     0.138 C 
HETATM   18  C   UNK N   1      36.744  35.339  50.238  0.00  0.00     0.059 C 
HETATM   19  C   UNK N   1      36.293  34.393  49.141  0.00  0.00     0.274 C 
HETATM   20  N   UNK N   1      36.752  33.054  49.550  0.00  0.00     0.090 N 
HETATM   21  C   UNK N   1      37.740  33.252  50.636  0.00  0.00     0.299 C 
BRANCH  20  22
HETATM   22  C   UNK N   1      35.656  32.087  49.823  0.00  0.00     0.273 C 
BRANCH  22  23
HETATM   23  C   UNK N   1      35.553  30.908  48.817  0.00  0.00     0.035 C 
BRANCH  23  24
HETATM   24  C   UNK N   1      36.229  31.190  47.461  0.00  0.00    -0.009 C 
HETATM   25  C   UNK N   1      36.891  29.936  46.829  0.00  0.00     0.031 C 
HETATM   26  C   UNK N   1      36.923  30.033  45.287  0.00  0.00     0.168 C 
HETATM   27  O   UNK N   1      37.160  31.356  44.859  0.00  0.00    -0.391 OA
HETATM   28  C   UNK N   1      36.075  32.223  45.209  0.00  0.00     0.168 C 
HETATM   29  C   UNK N   1      35.244  31.778  46.445  0.00  0.00     0.031 C 
ENDBRANCH  23  24
ENDBRANCH  22  23
ENDBRANCH  20  22
ENDBRANCH   4  17
BRANCH   1  30
HETATM   30  C   UNK N   1      41.264  34.222  46.880  0.00  0.00     0.272 C 
HETATM   31  O   UNK N   1      40.826  34.594  45.799  0.00  0.00    -0.266 OA
HETATM   32  N   UNK N   1      42.307  33.321  46.901  0.00  0.00    -0.343 N 
HETATM   33  C   UNK N   1      42.884  32.857  48.167  0.00  0.00     0.152 C 
HETATM   34  C   UNK N   1      42.719  32.710  45.628  0.00  0.00     0.152 C 
HETATM   35  C   UNK N   1      44.169  32.050  47.978  0.00  0.00     0.187 C 
HETATM   36  O   UNK N   1      44.020  31.128  46.920  0.00  0.00    -0.388 OA
HETATM   37  C   UNK N   1      44.001  31.879  45.726  0.00  0.00     0.187 C 
ENDBRANCH   1  30
TORSDOF 5
ENDMDL
MODEL 6
REMARK VINA RESULT:      -7.9      3.329      7.602
REMARK  5 active torsions:
REMARK  status: ('A' for Active; 'I' for Inactive)
REMARK    1  A    between atoms: C_2  and  C_3 
REMARK       I    between atoms: C_2  and  N_32 
REMARK    2  A    between atoms: N_6  and  C_7 
REMARK    3  A    between atoms: N_10  and  C_11 
REMARK    4  A    between atoms: C_11  and  C_12 
REMARK    5  A    between atoms: C_12  and  C_13 
ROOT
HETATM    1  C   UNK N   1      40.917  39.047  54.265  0.00  0.00     0.126 A 
HETATM    2  N   UNK N   1      40.361  38.718  53.082  0.00  0.00    -0.292 N 
ATOM      3  HN  UNK N   1      39.360  38.647  52.898  1.00  0.00     0.187 HD
HETATM    4  N   UNK N   1      41.324  38.503  52.195  0.00  0.00    -0.284 N 
HETATM    5  C   UNK N   1      42.538  38.677  52.795  0.00  0.00     0.072 A 
HETATM    6  C   UNK N   1      42.296  39.079  54.115  0.00  0.00     0.019 A 
HETATM    7  C   UNK N   1      43.293  39.518  55.159  0.00  0.00     0.189 C 
HETATM    8  S   UNK N   1      44.841  39.896  54.324  0.00  0.00     0.180 S 
HETATM    9  O   UNK N   1      44.910  41.401  54.014  0.00  0.00    -0.222 OA
HETATM   10  O   UNK N   1      46.041  39.706  55.263  0.00  0.00    -0.222 OA
HETATM   11  C   UNK N   1      45.058  38.995  52.820  0.00  0.00     0.072 A 
HETATM   12  C   UNK N   1      46.340  38.795  52.297  0.00  0.00     0.024 A 
HETATM   13  C   UNK N   1      46.513  38.025  51.149  0.00  0.00     0.002 A 
HETATM   14  C   UNK N   1      45.409  37.441  50.535  0.00  0.00     0.001 A 
HETATM   15  C   UNK N   1      44.125  37.645  51.046  0.00  0.00     0.015 A 
HETATM   16  C   UNK N   1      43.916  38.456  52.188  0.00  0.00     0.014 A 
ENDROOT
BRANCH   4  17
HETATM   17  C   UNK N   1      41.056  38.306  50.755  0.00  0.00     0.138 C 
HETATM   18  C   UNK N   1      40.692  36.872  50.415  0.00  0.00     0.059 C 
HETATM   19  C   UNK N   1      39.239  36.795  50.847  0.00  0.00     0.274 C 
HETATM   20  N   UNK N   1      38.658  38.115  50.544  0.00  0.00     0.090 N 
HETATM   21  C   UNK N   1      39.791  39.036  50.296  0.00  0.00     0.299 C 
BRANCH  20  22
HETATM   22  C   UNK N   1      37.588  38.092  49.513  0.00  0.00     0.273 C 
BRANCH  22  23
HETATM   23  C   UNK N   1      36.540  39.232  49.626  0.00  0.00     0.035 C 
BRANCH  23  24
HETATM   24  C   UNK N   1      36.067  39.776  48.264  0.00  0.00    -0.009 C 
HETATM   25  C   UNK N   1      35.881  38.673  47.189  0.00  0.00     0.031 C 
HETATM   26  C   UNK N   1      34.810  39.071  46.150  0.00  0.00     0.168 C 
HETATM   27  O   UNK N   1      34.853  40.453  45.870  0.00  0.00    -0.391 OA
HETATM   28  C   UNK N   1      34.492  41.233  47.015  0.00  0.00     0.168 C 
HETATM   29  C   UNK N   1      34.751  40.553  48.388  0.00  0.00     0.031 C 
ENDBRANCH  23  24
ENDBRANCH  22  23
ENDBRANCH  20  22
ENDBRANCH   4  17
BRANCH   1  30
HETATM   30  C   UNK N   1      40.163  39.318  55.533  0.00  0.00     0.272 C 
HETATM   31  O   UNK N   1      40.417  38.614  56.502  0.00  0.00    -0.266 OA
HETATM   32  N   UNK N   1      39.204  40.301  55.659  0.00  0.00    -0.343 N 
HETATM   33  C   UNK N   1      38.874  41.186  54.537  0.00  0.00     0.152 C 
HETATM   34  C   UNK N   1      38.406  40.336  56.892  0.00  0.00     0.152 C 
HETATM   35  C   UNK N   1      37.966  42.349  54.940  0.00  0.00     0.187 C 
HETATM   36  O   UNK N   1      36.924  41.892  55.776  0.00  0.00    -0.388 OA
HETATM   37  C   UNK N   1      37.512  41.572  57.018  0.00  0.00     0.187 C 
ENDBRANCH   1  30
TORSDOF 5
ENDMDL
MODEL 7
REMARK VINA RESULT:      -7.8      2.802      7.526
REMARK  5 active torsions:
REMARK  status: ('A' for Active; 'I' for Inactive)
REMARK    1  A    between atoms: C_2  and  C_3 
REMARK       I    between atoms: C_2  and  N_32 
REMARK    2  A    between atoms: N_6  and  C_7 
REMARK    3  A    between atoms: N_10  and  C_11 
REMARK    4  A    between atoms: C_11  and  C_12 
REMARK    5  A    between atoms: C_12  and  C_13 
ROOT
HETATM    1  C   UNK N   1      42.506  39.649  54.046  0.00  0.00     0.126 A 
HETATM    2  N   UNK N   1      41.877  39.514  52.861  0.00  0.00    -0.292 N 
ATOM      3  HN  UNK N   1      40.886  39.688  52.694  1.00  0.00     0.187 HD
HETATM    4  N   UNK N   1      42.755  39.121  51.947  0.00  0.00    -0.284 N 
HETATM    5  C   UNK N   1      43.981  38.978  52.531  0.00  0.00     0.072 A 
HETATM    6  C   UNK N   1      43.852  39.364  53.871  0.00  0.00     0.019 A 
HETATM    7  C   UNK N   1      44.933  39.509  54.913  0.00  0.00     0.189 C 
HETATM    8  S   UNK N   1      46.520  39.553  54.065  0.00  0.00     0.180 S 
HETATM    9  O   UNK N   1      46.937  41.012  53.818  0.00  0.00    -0.222 OA
HETATM   10  O   UNK N   1      47.650  39.044  54.972  0.00  0.00    -0.222 OA
HETATM   11  C   UNK N   1      46.506  38.696  52.520  0.00  0.00     0.072 A 
HETATM   12  C   UNK N   1      47.700  38.225  51.965  0.00  0.00     0.024 A 
HETATM   13  C   UNK N   1      47.677  37.490  50.781  0.00  0.00     0.002 A 
HETATM   14  C   UNK N   1      46.461  37.209  50.164  0.00  0.00     0.001 A 
HETATM   15  C   UNK N   1      45.266  37.685  50.709  0.00  0.00     0.015 A 
HETATM   16  C   UNK N   1      45.263  38.469  51.888  0.00  0.00     0.014 A 
ENDROOT
BRANCH   4  17
HETATM   17  C   UNK N   1      42.436  39.058  50.506  0.00  0.00     0.138 C 
HETATM   18  C   UNK N   1      42.085  37.656  50.041  0.00  0.00     0.059 C 
HETATM   19  C   UNK N   1      40.652  37.505  50.516  0.00  0.00     0.274 C 
HETATM   20  N   UNK N   1      40.035  38.835  50.365  0.00  0.00     0.090 N 
HETATM   21  C   UNK N   1      41.140  39.801  50.167  0.00  0.00     0.299 C 
BRANCH  20  22
HETATM   22  C   UNK N   1      38.927  38.888  49.376  0.00  0.00     0.273 C 
BRANCH  22  23
HETATM   23  C   UNK N   1      37.801  37.840  49.593  0.00  0.00     0.035 C 
BRANCH  23  24
HETATM   24  C   UNK N   1      36.456  38.456  50.025  0.00  0.00    -0.009 C 
HETATM   25  C   UNK N   1      36.268  38.509  51.564  0.00  0.00     0.031 C 
HETATM   26  C   UNK N   1      35.346  39.677  51.980  0.00  0.00     0.168 C 
HETATM   27  O   UNK N   1      34.306  39.869  51.046  0.00  0.00    -0.391 OA
HETATM   28  C   UNK N   1      34.813  40.300  49.777  0.00  0.00     0.168 C 
HETATM   29  C   UNK N   1      36.274  39.873  49.469  0.00  0.00     0.031 C 
ENDBRANCH  23  24
ENDBRANCH  22  23
ENDBRANCH  20  22
ENDBRANCH   4  17
BRANCH   1  30
HETATM   30  C   UNK N   1      41.847  40.031  55.339  0.00  0.00     0.272 C 
HETATM   31  O   UNK N   1      42.273  41.023  55.916  0.00  0.00    -0.266 OA
HETATM   32  N   UNK N   1      40.806  39.327  55.906  0.00  0.00    -0.343 N 
HETATM   33  C   UNK N   1      40.243  38.143  55.247  0.00  0.00     0.152 C 
HETATM   34  C   UNK N   1      40.381  39.694  57.264  0.00  0.00     0.152 C 
HETATM   35  C   UNK N   1      38.957  37.645  55.909  0.00  0.00     0.187 C 
HETATM   36  O   UNK N   1      39.097  37.641  57.314  0.00  0.00    -0.388 OA
HETATM   37  C   UNK N   1      39.101  38.991  57.725  0.00  0.00     0.187 C 
ENDBRANCH   1  30
TORSDOF 5
ENDMDL
MODEL 8
REMARK VINA RESULT:      -7.8      4.234      5.608
REMARK  5 active torsions:
REMARK  status: ('A' for Active; 'I' for Inactive)
REMARK    1  A    between atoms: C_2  and  C_3 
REMARK       I    between atoms: C_2  and  N_32 
REMARK    2  A    between atoms: N_6  and  C_7 
REMARK    3  A    between atoms: N_10  and  C_11 
REMARK    4  A    between atoms: C_11  and  C_12 
REMARK    5  A    between atoms: C_12  and  C_13 
ROOT
HETATM    1  C   UNK N   1      38.561  34.660  49.369  0.00  0.00     0.126 A 
HETATM    2  N   UNK N   1      39.728  34.344  48.771  0.00  0.00    -0.292 N 
ATOM      3  HN  UNK N   1      39.882  33.539  48.164  1.00  0.00     0.187 HD
HETATM    4  N   UNK N   1      40.641  35.250  49.099  0.00  0.00    -0.284 N 
HETATM    5  C   UNK N   1      40.083  36.173  49.935  0.00  0.00     0.072 A 
HETATM    6  C   UNK N   1      38.730  35.841  50.079  0.00  0.00     0.019 A 
HETATM    7  C   UNK N   1      37.647  36.608  50.795  0.00  0.00     0.189 C 
HETATM    8  S   UNK N   1      38.243  38.283  51.069  0.00  0.00     0.180 S 
HETATM    9  O   UNK N   1      37.764  39.198  49.930  0.00  0.00    -0.222 OA
HETATM   10  O   UNK N   1      37.571  38.919  52.296  0.00  0.00    -0.222 OA
HETATM   11  C   UNK N   1      40.003  38.386  51.180  0.00  0.00     0.072 A 
HETATM   12  C   UNK N   1      40.606  39.464  51.837  0.00  0.00     0.024 A 
HETATM   13  C   UNK N   1      41.991  39.505  51.981  0.00  0.00     0.002 A 
HETATM   14  C   UNK N   1      42.770  38.463  51.488  0.00  0.00     0.001 A 
HETATM   15  C   UNK N   1      42.174  37.388  50.823  0.00  0.00     0.015 A 
HETATM   16  C   UNK N   1      40.773  37.340  50.625  0.00  0.00     0.014 A 
ENDROOT
BRANCH   4  17
HETATM   17  C   UNK N   1      41.976  35.304  48.466  0.00  0.00     0.138 C 
HETATM   18  C   UNK N   1      42.978  34.373  49.125  0.00  0.00     0.059 C 
HETATM   19  C   UNK N   1      42.596  33.023  48.548  0.00  0.00     0.274 C 
HETATM   20  N   UNK N   1      42.176  33.283  47.159  0.00  0.00     0.090 N 
HETATM   21  C   UNK N   1      41.964  34.744  47.041  0.00  0.00     0.299 C 
BRANCH  20  22
HETATM   22  C   UNK N   1      43.044  32.656  46.129  0.00  0.00     0.273 C 
BRANCH  22  23
HETATM   23  C   UNK N   1      44.037  33.624  45.429  0.00  0.00     0.035 C 
BRANCH  23  24
HETATM   24  C   UNK N   1      45.516  33.333  45.749  0.00  0.00    -0.009 C 
HETATM   25  C   UNK N   1      45.796  33.155  47.265  0.00  0.00     0.031 C 
HETATM   26  C   UNK N   1      47.007  32.227  47.510  0.00  0.00     0.168 C 
HETATM   27  O   UNK N   1      48.009  32.419  46.535  0.00  0.00    -0.391 OA
HETATM   28  C   UNK N   1      47.559  32.019  45.235  0.00  0.00     0.168 C 
HETATM   29  C   UNK N   1      46.022  32.085  45.017  0.00  0.00     0.031 C 
ENDBRANCH  23  24
ENDBRANCH  22  23
ENDBRANCH  20  22
ENDBRANCH   4  17
BRANCH   1  30
HETATM   30  C   UNK N   1      37.298  33.855  49.286  0.00  0.00     0.272 C 
HETATM   31  O   UNK N   1      36.667  33.904  48.237  0.00  0.00    -0.266 OA
HETATM   32  N   UNK N   1      36.814  33.079  50.318  0.00  0.00    -0.343 N 
HETATM   33  C   UNK N   1      37.540  32.968  51.588  0.00  0.00     0.152 C 
HETATM   34  C   UNK N   1      35.472  32.497  50.175  0.00  0.00     0.152 C 
HETATM   35  C   UNK N   1      36.969  31.889  52.510  0.00  0.00     0.187 C 
HETATM   36  O   UNK N   1      35.559  31.959  52.535  0.00  0.00    -0.388 OA
HETATM   37  C   UNK N   1      35.108  31.501  51.279  0.00  0.00     0.187 C 
ENDBRANCH   1  30
TORSDOF 5
ENDMDL
MODEL 9
REMARK VINA RESULT:      -7.7      2.727      6.089
REMARK  5 active torsions:
REMARK  status: ('A' for Active; 'I' for Inactive)
REMARK    1  A    between atoms: C_2  and  C_3 
REMARK       I    between atoms: C_2  and  N_32 
REMARK    2  A    between atoms: N_6  and  C_7 
REMARK    3  A    between atoms: N_10  and  C_11 
REMARK    4  A    between atoms: C_11  and  C_12 
REMARK    5  A    between atoms: C_12  and  C_13 
ROOT
HETATM    1  C   UNK N   1      40.968  40.229  57.167  0.00  0.00     0.126 A 
HETATM    2  N   UNK N   1      41.880  40.375  56.186  0.00  0.00    -0.292 N 
ATOM      3  HN  UNK N   1      42.771  40.866  56.273  1.00  0.00     0.187 HD
HETATM    4  N   UNK N   1      41.434  39.778  55.087  0.00  0.00    -0.284 N 
HETATM    5  C   UNK N   1      40.205  39.239  55.334  0.00  0.00     0.072 A 
HETATM    6  C   UNK N   1      39.910  39.473  56.683  0.00  0.00     0.019 A 
HETATM    7  C   UNK N   1      38.735  38.974  57.486  0.00  0.00     0.189 C 
HETATM    8  S   UNK N   1      37.967  37.629  56.571  0.00  0.00     0.180 S 
HETATM    9  O   UNK N   1      38.527  36.283  57.061  0.00  0.00    -0.222 OA
HETATM   10  O   UNK N   1      36.476  37.501  56.915  0.00  0.00    -0.222 OA
HETATM   11  C   UNK N   1      38.212  37.747  54.826  0.00  0.00     0.072 A 
HETATM   12  C   UNK N   1      37.337  37.101  53.946  0.00  0.00     0.024 A 
HETATM   13  C   UNK N   1      37.493  37.253  52.570  0.00  0.00     0.002 A 
HETATM   14  C   UNK N   1      38.510  38.064  52.074  0.00  0.00     0.001 A 
HETATM   15  C   UNK N   1      39.394  38.703  52.948  0.00  0.00     0.015 A 
HETATM   16  C   UNK N   1      39.284  38.534  54.349  0.00  0.00     0.014 A 
ENDROOT
BRANCH   4  17
HETATM   17  C   UNK N   1      42.270  39.590  53.884  0.00  0.00     0.138 C 
HETATM   18  C   UNK N   1      42.722  40.904  53.270  0.00  0.00     0.059 C 
HETATM   19  C   UNK N   1      43.865  41.311  54.181  0.00  0.00     0.274 C 
HETATM   20  N   UNK N   1      44.538  40.059  54.568  0.00  0.00     0.090 N 
HETATM   21  C   UNK N   1      43.622  38.951  54.211  0.00  0.00     0.299 C 
BRANCH  20  22
HETATM   22  C   UNK N   1      45.938  39.940  54.083  0.00  0.00     0.273 C 
BRANCH  22  23
HETATM   23  C   UNK N   1      46.319  38.549  53.507  0.00  0.00     0.035 C 
BRANCH  23  24
HETATM   24  C   UNK N   1      46.650  38.571  52.002  0.00  0.00    -0.009 C 
HETATM   25  C   UNK N   1      48.006  37.899  51.659  0.00  0.00     0.031 C 
HETATM   26  C   UNK N   1      48.001  37.317  50.228  0.00  0.00     0.168 C 
HETATM   27  O   UNK N   1      47.275  38.139  49.340  0.00  0.00    -0.391 OA
HETATM   28  C   UNK N   1      45.883  38.172  49.675  0.00  0.00     0.168 C 
HETATM   29  C   UNK N   1      45.555  37.896  51.169  0.00  0.00     0.031 C 
ENDBRANCH  23  24
ENDBRANCH  22  23
ENDBRANCH  20  22
ENDBRANCH   4  17
BRANCH   1  30
HETATM   30  C   UNK N   1      41.080  40.805  58.548  0.00  0.00     0.272 C 
HETATM   31  O   UNK N   1      41.866  40.269  59.319  0.00  0.00    -0.266 OA
HETATM   32  N   UNK N   1      40.349  41.887  58.989  0.00  0.00    -0.343 N 
HETATM   33  C   UNK N   1      39.409  42.580  58.101  0.00  0.00     0.152 C 
HETATM   34  C   UNK N   1      40.412  42.229  60.417  0.00  0.00     0.152 C 
HETATM   35  C   UNK N   1      38.875  43.884  58.697  0.00  0.00     0.187 C 
HETATM   36  O   UNK N   1      38.521  43.697  60.051  0.00  0.00    -0.388 OA
HETATM   37  C   UNK N   1      39.726  43.552  60.769  0.00  0.00     0.187 C 
ENDBRANCH   1  30
TORSDOF 5
ENDMDL
