MODEL 1
REMARK VINA RESULT:      -9.6      0.000      0.000
REMARK  5 active torsions:
REMARK  status: ('A' for Active; 'I' for Inactive)
REMARK    1  A    between atoms: C_2  and  C_3 
REMARK       I    between atoms: C_2  and  N_35 
REMARK    2  A    between atoms: C_3  and  C_4 
REMARK    3  A    between atoms: C_4  and  N_5 
REMARK    4  A    between atoms: C_9  and  N_10 
REMARK    5  A    between atoms: C_13  and  C_14 
REMARK       I    between atoms: C_14  and  N_16 
ROOT
HETATM    1  N   UNK N   1      40.993  34.718  48.312  0.00  0.00    -0.284 N 
HETATM    2  N   UNK N   1      39.747  34.265  48.372  0.00  0.00    -0.292 N 
ATOM      3  HN  UNK N   1      39.399  33.431  47.898  1.00  0.00     0.187 HD
HETATM    4  C   UNK N   1      39.012  35.079  49.158  0.00  0.00     0.126 A 
HETATM    5  C   UNK N   1      39.839  36.092  49.637  0.00  0.00     0.019 A 
HETATM    6  C   UNK N   1      41.104  35.829  49.097  0.00  0.00     0.072 A 
HETATM    7  C   UNK N   1      42.320  36.717  49.294  0.00  0.00     0.014 A 
HETATM    8  C   UNK N   1      43.646  36.246  49.171  0.00  0.00     0.015 A 
HETATM    9  C   UNK N   1      44.729  37.114  49.347  0.00  0.00     0.001 A 
HETATM   10  C   UNK N   1      44.516  38.458  49.656  0.00  0.00     0.002 A 
HETATM   11  C   UNK N   1      43.218  38.937  49.814  0.00  0.00     0.024 A 
HETATM   12  C   UNK N   1      42.132  38.074  49.645  0.00  0.00     0.072 A 
HETATM   13  S   UNK N   1      40.476  38.648  49.906  0.00  0.00     0.180 S 
HETATM   14  O   UNK N   1      39.911  39.248  48.610  0.00  0.00    -0.222 OA
HETATM   15  O   UNK N   1      40.436  39.829  50.887  0.00  0.00    -0.222 OA
HETATM   16  C   UNK N   1      39.459  37.289  50.478  0.00  0.00     0.189 C 
ENDROOT
BRANCH   1  17
HETATM   17  C   UNK N   1      41.964  34.168  47.345  0.00  0.00     0.137 C 
HETATM   18  C   UNK N   1      42.844  33.076  47.965  0.00  0.00     0.031 C 
HETATM   19  C   UNK N   1      43.821  32.555  46.901  0.00  0.00     0.032 C 
HETATM   20  C   UNK N   1      43.056  32.044  45.664  0.00  0.00     0.272 C 
HETATM   21  N   UNK N   1      42.155  33.070  45.086  0.00  0.00     0.090 N 
HETATM   22  C   UNK N   1      41.219  33.578  46.123  0.00  0.00     0.299 C 
BRANCH  21  23
HETATM   23  C   UNK N   1      42.822  34.181  44.362  0.00  0.00     0.281 C 
BRANCH  23  24
HETATM   24  C   UNK N   1      41.860  35.214  43.739  0.00  0.00     0.133 C 
BRANCH  24  25
HETATM   25  C   UNK N   1      41.405  34.897  42.329  0.00  0.00     0.221 C 
HETATM   26  O   UNK N   1      42.213  34.386  41.564  0.00  0.00    -0.273 OA
HETATM   27  N   UNK N   1      40.159  35.230  41.869  0.00  0.00    -0.346 N 
HETATM   28  C   UNK N   1      39.769  35.040  40.488  0.00  0.00     0.132 C 
HETATM   29  C   UNK N   1      39.145  35.903  42.652  0.00  0.00     0.204 C 
HETATM   30  C   UNK N   1      38.576  35.985  40.353  0.00  0.00     0.100 C 
HETATM   31  C   UNK N   1      37.930  35.867  41.720  0.00  0.00     0.261 C 
HETATM   32  F   UNK N   1      37.012  36.867  41.988  0.00  0.00    -0.204 F 
HETATM   33  F   UNK N   1      37.311  34.630  41.810  0.00  0.00    -0.204 F 
ENDBRANCH  24  25
ENDBRANCH  23  24
ENDBRANCH  21  23
ENDBRANCH   1  17
BRANCH   4  34
HETATM   34  C   UNK N   1      37.528  34.962  49.383  0.00  0.00     0.272 C 
HETATM   35  O   UNK N   1      36.790  35.221  48.444  0.00  0.00    -0.266 OA
HETATM   36  N   UNK N   1      36.959  34.534  50.565  0.00  0.00    -0.343 N 
HETATM   37  C   UNK N   1      37.781  34.194  51.730  0.00  0.00     0.152 C 
HETATM   38  C   UNK N   1      35.517  34.239  50.556  0.00  0.00     0.152 C 
HETATM   39  C   UNK N   1      36.955  33.818  52.962  0.00  0.00     0.187 C 
HETATM   40  O   UNK N   1      35.880  32.981  52.591  0.00  0.00    -0.388 OA
HETATM   41  C   UNK N   1      34.953  33.797  51.908  0.00  0.00     0.187 C 
ENDBRANCH   4  34
TORSDOF 5
ENDMDL
MODEL 2
REMARK VINA RESULT:      -9.0      2.070      2.462
REMARK  5 active torsions:
REMARK  status: ('A' for Active; 'I' for Inactive)
REMARK    1  A    between atoms: C_2  and  C_3 
REMARK       I    between atoms: C_2  and  N_35 
REMARK    2  A    between atoms: C_3  and  C_4 
REMARK    3  A    between atoms: C_4  and  N_5 
REMARK    4  A    between atoms: C_9  and  N_10 
REMARK    5  A    between atoms: C_13  and  C_14 
REMARK       I    between atoms: C_14  and  N_16 
ROOT
HETATM    1  N   UNK N   1      40.778  34.911  49.204  0.00  0.00    -0.284 N 
HETATM    2  N   UNK N   1      39.538  34.441  49.132  0.00  0.00    -0.292 N 
ATOM      3  HN  UNK N   1      39.237  33.657  48.552  1.00  0.00     0.187 HD
HETATM    4  C   UNK N   1      38.738  35.163  49.944  0.00  0.00     0.126 A 
HETATM    5  C   UNK N   1      39.513  36.130  50.579  0.00  0.00     0.019 A 
HETATM    6  C   UNK N   1      40.816  35.937  50.103  0.00  0.00     0.072 A 
HETATM    7  C   UNK N   1      42.001  36.813  50.471  0.00  0.00     0.014 A 
HETATM    8  C   UNK N   1      43.340  36.370  50.393  0.00  0.00     0.015 A 
HETATM    9  C   UNK N   1      44.394  37.227  50.730  0.00  0.00     0.001 A 
HETATM   10  C   UNK N   1      44.137  38.530  51.158  0.00  0.00     0.002 A 
HETATM   11  C   UNK N   1      42.823  38.977  51.274  0.00  0.00     0.024 A 
HETATM   12  C   UNK N   1      41.766  38.124  50.944  0.00  0.00     0.072 A 
HETATM   13  S   UNK N   1      40.087  38.652  51.148  0.00  0.00     0.180 S 
HETATM   14  O   UNK N   1      39.600  39.376  49.884  0.00  0.00    -0.222 OA
HETATM   15  O   UNK N   1      39.961  39.725  52.239  0.00  0.00    -0.222 OA
HETATM   16  C   UNK N   1      39.057  37.231  51.508  0.00  0.00     0.189 C 
ENDROOT
BRANCH   1  17
HETATM   17  C   UNK N   1      41.820  34.472  48.255  0.00  0.00     0.137 C 
HETATM   18  C   UNK N   1      42.715  33.376  48.843  0.00  0.00     0.031 C 
HETATM   19  C   UNK N   1      43.769  32.974  47.801  0.00  0.00     0.032 C 
HETATM   20  C   UNK N   1      43.092  32.523  46.491  0.00  0.00     0.272 C 
HETATM   21  N   UNK N   1      42.176  33.550  45.938  0.00  0.00     0.090 N 
HETATM   22  C   UNK N   1      41.167  33.942  46.955  0.00  0.00     0.299 C 
BRANCH  21  23
HETATM   23  C   UNK N   1      42.829  34.737  45.331  0.00  0.00     0.281 C 
BRANCH  23  24
HETATM   24  C   UNK N   1      42.345  35.080  43.907  0.00  0.00     0.133 C 
BRANCH  24  25
HETATM   25  C   UNK N   1      41.025  34.451  43.510  0.00  0.00     0.221 C 
HETATM   26  O   UNK N   1      39.993  35.012  43.853  0.00  0.00    -0.273 OA
HETATM   27  N   UNK N   1      40.954  33.251  42.853  0.00  0.00    -0.346 N 
HETATM   28  C   UNK N   1      39.694  32.592  42.584  0.00  0.00     0.132 C 
HETATM   29  C   UNK N   1      42.099  32.458  42.462  0.00  0.00     0.204 C 
HETATM   30  C   UNK N   1      40.128  31.147  42.338  0.00  0.00     0.100 C 
HETATM   31  C   UNK N   1      41.458  31.339  41.635  0.00  0.00     0.261 C 
HETATM   32  F   UNK N   1      42.229  30.191  41.586  0.00  0.00    -0.204 F 
HETATM   33  F   UNK N   1      41.216  31.792  40.347  0.00  0.00    -0.204 F 
ENDBRANCH  24  25
ENDBRANCH  23  24
ENDBRANCH  21  23
ENDBRANCH   1  17
BRANCH   4  34
HETATM   34  C   UNK N   1      37.244  35.008  50.054  0.00  0.00     0.272 C 
HETATM   35  O   UNK N   1      36.569  35.325  49.084  0.00  0.00    -0.266 OA
HETATM   36  N   UNK N   1      36.603  34.487  51.158  0.00  0.00    -0.343 N 
HETATM   37  C   UNK N   1      37.348  34.076  52.352  0.00  0.00     0.152 C 
HETATM   38  C   UNK N   1      35.171  34.173  51.025  0.00  0.00     0.152 C 
HETATM   39  C   UNK N   1      36.444  33.599  53.491  0.00  0.00     0.187 C 
HETATM   40  O   UNK N   1      35.415  32.776  52.986  0.00  0.00    -0.388 OA
HETATM   41  C   UNK N   1      34.522  33.625  52.298  0.00  0.00     0.187 C 
ENDBRANCH   4  34
TORSDOF 5
ENDMDL
MODEL 3
REMARK VINA RESULT:      -8.9      5.455      8.183
REMARK  5 active torsions:
REMARK  status: ('A' for Active; 'I' for Inactive)
REMARK    1  A    between atoms: C_2  and  C_3 
REMARK       I    between atoms: C_2  and  N_35 
REMARK    2  A    between atoms: C_3  and  C_4 
REMARK    3  A    between atoms: C_4  and  N_5 
REMARK    4  A    between atoms: C_9  and  N_10 
REMARK    5  A    between atoms: C_13  and  C_14 
REMARK       I    between atoms: C_14  and  N_16 
ROOT
HETATM    1  N   UNK N   1      41.371  40.277  54.089  0.00  0.00    -0.284 N 
HETATM    2  N   UNK N   1      40.955  40.618  55.304  0.00  0.00    -0.292 N 
ATOM      3  HN  UNK N   1      41.545  41.000  56.043  1.00  0.00     0.187 HD
HETATM    4  C   UNK N   1      39.631  40.378  55.407  0.00  0.00     0.126 A 
HETATM    5  C   UNK N   1      39.178  39.877  54.189  0.00  0.00     0.019 A 
HETATM    6  C   UNK N   1      40.305  39.838  53.358  0.00  0.00     0.072 A 
HETATM    7  C   UNK N   1      40.305  39.292  51.941  0.00  0.00     0.014 A 
HETATM    8  C   UNK N   1      41.259  39.670  50.971  0.00  0.00     0.015 A 
HETATM    9  C   UNK N   1      41.221  39.121  49.684  0.00  0.00     0.001 A 
HETATM   10  C   UNK N   1      40.232  38.200  49.336  0.00  0.00     0.002 A 
HETATM   11  C   UNK N   1      39.261  37.839  50.267  0.00  0.00     0.024 A 
HETATM   12  C   UNK N   1      39.291  38.387  51.553  0.00  0.00     0.072 A 
HETATM   13  S   UNK N   1      38.028  37.990  52.730  0.00  0.00     0.180 S 
HETATM   14  O   UNK N   1      38.405  36.720  53.507  0.00  0.00    -0.222 OA
HETATM   15  O   UNK N   1      36.713  37.602  52.038  0.00  0.00    -0.222 OA
HETATM   16  C   UNK N   1      37.796  39.376  53.842  0.00  0.00     0.189 C 
ENDROOT
BRANCH   1  17
HETATM   17  C   UNK N   1      42.808  40.209  53.762  0.00  0.00     0.137 C 
HETATM   18  C   UNK N   1      43.595  41.381  54.360  0.00  0.00     0.031 C 
HETATM   19  C   UNK N   1      45.076  41.239  53.978  0.00  0.00     0.032 C 
HETATM   20  C   UNK N   1      45.628  39.877  54.446  0.00  0.00     0.272 C 
HETATM   21  N   UNK N   1      44.843  38.733  53.923  0.00  0.00     0.090 N 
HETATM   22  C   UNK N   1      43.410  38.882  54.286  0.00  0.00     0.299 C 
BRANCH  21  23
HETATM   23  C   UNK N   1      45.012  38.440  52.478  0.00  0.00     0.281 C 
BRANCH  23  24
HETATM   24  C   UNK N   1      43.957  37.482  51.887  0.00  0.00     0.133 C 
BRANCH  24  25
HETATM   25  C   UNK N   1      44.216  37.045  50.459  0.00  0.00     0.221 C 
HETATM   26  O   UNK N   1      45.151  37.559  49.860  0.00  0.00    -0.273 OA
HETATM   27  N   UNK N   1      43.401  36.160  49.805  0.00  0.00    -0.346 N 
HETATM   28  C   UNK N   1      43.576  35.838  48.405  0.00  0.00     0.132 C 
HETATM   29  C   UNK N   1      42.225  35.544  50.381  0.00  0.00     0.204 C 
HETATM   30  C   UNK N   1      42.208  35.273  48.026  0.00  0.00     0.100 C 
HETATM   31  C   UNK N   1      41.812  34.544  49.296  0.00  0.00     0.261 C 
HETATM   32  F   UNK N   1      40.470  34.212  49.348  0.00  0.00    -0.204 F 
HETATM   33  F   UNK N   1      42.581  33.396  49.404  0.00  0.00    -0.204 F 
ENDBRANCH  24  25
ENDBRANCH  23  24
ENDBRANCH  21  23
ENDBRANCH   1  17
BRANCH   4  34
HETATM   34  C   UNK N   1      38.816  40.530  56.664  0.00  0.00     0.272 C 
HETATM   35  O   UNK N   1      38.074  41.499  56.744  0.00  0.00    -0.266 OA
HETATM   36  N   UNK N   1      38.821  39.620  57.701  0.00  0.00    -0.343 N 
HETATM   37  C   UNK N   1      39.677  38.430  57.670  0.00  0.00     0.152 C 
HETATM   38  C   UNK N   1      37.797  39.778  58.747  0.00  0.00     0.152 C 
HETATM   39  C   UNK N   1      39.592  37.593  58.948  0.00  0.00     0.187 C 
HETATM   40  O   UNK N   1      38.250  37.484  59.371  0.00  0.00    -0.388 OA
HETATM   41  C   UNK N   1      37.884  38.750  59.877  0.00  0.00     0.187 C 
ENDBRANCH   4  34
TORSDOF 5
ENDMDL
MODEL 4
REMARK VINA RESULT:      -8.8      5.517      8.404
REMARK  5 active torsions:
REMARK  status: ('A' for Active; 'I' for Inactive)
REMARK    1  A    between atoms: C_2  and  C_3 
REMARK       I    between atoms: C_2  and  N_35 
REMARK    2  A    between atoms: C_3  and  C_4 
REMARK    3  A    between atoms: C_4  and  N_5 
REMARK    4  A    between atoms: C_9  and  N_10 
REMARK    5  A    between atoms: C_13  and  C_14 
REMARK       I    between atoms: C_14  and  N_16 
ROOT
HETATM    1  N   UNK N   1      40.476  39.078  52.259  0.00  0.00    -0.284 N 
HETATM    2  N   UNK N   1      39.223  38.952  52.681  0.00  0.00    -0.292 N 
ATOM      3  HN  UNK N   1      38.847  39.356  53.539  1.00  0.00     0.187 HD
HETATM    4  C   UNK N   1      38.527  38.206  51.800  0.00  0.00     0.126 A 
HETATM    5  C   UNK N   1      39.376  37.855  50.753  0.00  0.00     0.019 A 
HETATM    6  C   UNK N   1      40.611  38.439  51.061  0.00  0.00     0.072 A 
HETATM    7  C   UNK N   1      41.870  38.267  50.229  0.00  0.00     0.014 A 
HETATM    8  C   UNK N   1      42.940  39.189  50.253  0.00  0.00     0.015 A 
HETATM    9  C   UNK N   1      44.085  38.971  49.478  0.00  0.00     0.001 A 
HETATM   10  C   UNK N   1      44.182  37.842  48.662  0.00  0.00     0.002 A 
HETATM   11  C   UNK N   1      43.126  36.938  48.598  0.00  0.00     0.024 A 
HETATM   12  C   UNK N   1      41.978  37.153  49.365  0.00  0.00     0.072 A 
HETATM   13  S   UNK N   1      40.597  36.049  49.249  0.00  0.00     0.180 S 
HETATM   14  O   UNK N   1      40.763  34.883  50.234  0.00  0.00    -0.222 OA
HETATM   15  O   UNK N   1      40.547  35.350  47.882  0.00  0.00    -0.222 OA
HETATM   16  C   UNK N   1      39.084  36.952  49.576  0.00  0.00     0.189 C 
ENDROOT
BRANCH   1  17
HETATM   17  C   UNK N   1      41.526  39.643  53.130  0.00  0.00     0.137 C 
HETATM   18  C   UNK N   1      40.953  40.596  54.185  0.00  0.00     0.031 C 
HETATM   19  C   UNK N   1      42.101  41.139  55.048  0.00  0.00     0.032 C 
HETATM   20  C   UNK N   1      42.893  39.980  55.688  0.00  0.00     0.272 C 
HETATM   21  N   UNK N   1      43.406  39.016  54.685  0.00  0.00     0.090 N 
HETATM   22  C   UNK N   1      42.292  38.504  53.846  0.00  0.00     0.299 C 
BRANCH  21  23
HETATM   23  C   UNK N   1      44.541  39.491  53.854  0.00  0.00     0.281 C 
BRANCH  23  24
HETATM   24  C   UNK N   1      45.845  38.685  54.024  0.00  0.00     0.133 C 
BRANCH  24  25
HETATM   25  C   UNK N   1      47.036  39.224  53.259  0.00  0.00     0.221 C 
HETATM   26  O   UNK N   1      47.594  40.224  53.691  0.00  0.00    -0.273 OA
HETATM   27  N   UNK N   1      47.453  38.678  52.074  0.00  0.00    -0.346 N 
HETATM   28  C   UNK N   1      48.512  39.268  51.282  0.00  0.00     0.132 C 
HETATM   29  C   UNK N   1      46.830  37.546  51.425  0.00  0.00     0.204 C 
HETATM   30  C   UNK N   1      48.265  38.660  49.902  0.00  0.00     0.100 C 
HETATM   31  C   UNK N   1      47.785  37.266  50.260  0.00  0.00     0.261 C 
HETATM   32  F   UNK N   1      47.177  36.603  49.208  0.00  0.00    -0.204 F 
HETATM   33  F   UNK N   1      48.868  36.528  50.712  0.00  0.00    -0.204 F 
ENDBRANCH  24  25
ENDBRANCH  23  24
ENDBRANCH  21  23
ENDBRANCH   1  17
BRANCH   4  34
HETATM   34  C   UNK N   1      37.104  37.748  51.982  0.00  0.00     0.272 C 
HETATM   35  O   UNK N   1      36.217  38.470  51.550  0.00  0.00    -0.266 OA
HETATM   36  N   UNK N   1      36.749  36.546  52.558  0.00  0.00    -0.343 N 
HETATM   37  C   UNK N   1      37.758  35.624  53.088  0.00  0.00     0.152 C 
HETATM   38  C   UNK N   1      35.341  36.130  52.446  0.00  0.00     0.152 C 
HETATM   39  C   UNK N   1      37.153  34.386  53.754  0.00  0.00     0.187 C 
HETATM   40  O   UNK N   1      36.083  33.889  52.980  0.00  0.00    -0.388 OA
HETATM   41  C   UNK N   1      35.018  34.801  53.133  0.00  0.00     0.187 C 
ENDBRANCH   4  34
TORSDOF 5
ENDMDL
MODEL 5
REMARK VINA RESULT:      -8.8      5.669      8.523
REMARK  5 active torsions:
REMARK  status: ('A' for Active; 'I' for Inactive)
REMARK    1  A    between atoms: C_2  and  C_3 
REMARK       I    between atoms: C_2  and  N_35 
REMARK    2  A    between atoms: C_3  and  C_4 
REMARK    3  A    between atoms: C_4  and  N_5 
REMARK    4  A    between atoms: C_9  and  N_10 
REMARK    5  A    between atoms: C_13  and  C_14 
REMARK       I    between atoms: C_14  and  N_16 
ROOT
HETATM    1  N   UNK N   1      41.203  40.291  54.016  0.00  0.00    -0.284 N 
HETATM    2  N   UNK N   1      40.751  40.661  55.209  0.00  0.00    -0.292 N 
ATOM      3  HN  UNK N   1      41.315  41.076  55.951  1.00  0.00     0.187 HD
HETATM    4  C   UNK N   1      39.429  40.400  55.287  0.00  0.00     0.126 A 
HETATM    5  C   UNK N   1      39.016  39.854  54.074  0.00  0.00     0.019 A 
HETATM    6  C   UNK N   1      40.164  39.811  53.273  0.00  0.00     0.072 A 
HETATM    7  C   UNK N   1      40.209  39.222  51.874  0.00  0.00     0.014 A 
HETATM    8  C   UNK N   1      41.182  39.587  50.916  0.00  0.00     0.015 A 
HETATM    9  C   UNK N   1      41.185  38.999  49.646  0.00  0.00     0.001 A 
HETATM   10  C   UNK N   1      40.222  38.050  49.303  0.00  0.00     0.002 A 
HETATM   11  C   UNK N   1      39.234  37.700  50.220  0.00  0.00     0.024 A 
HETATM   12  C   UNK N   1      39.222  38.287  51.488  0.00  0.00     0.072 A 
HETATM   13  S   UNK N   1      37.936  37.904  52.645  0.00  0.00     0.180 S 
HETATM   14  O   UNK N   1      38.315  36.665  53.470  0.00  0.00    -0.222 OA
HETATM   15  O   UNK N   1      36.646  37.470  51.933  0.00  0.00    -0.222 OA
HETATM   16  C   UNK N   1      37.651  39.318  53.708  0.00  0.00     0.189 C 
ENDROOT
BRANCH   1  17
HETATM   17  C   UNK N   1      42.650  40.239  53.727  0.00  0.00     0.137 C 
HETATM   18  C   UNK N   1      43.406  41.424  54.338  0.00  0.00     0.031 C 
HETATM   19  C   UNK N   1      44.898  41.298  53.997  0.00  0.00     0.032 C 
HETATM   20  C   UNK N   1      45.455  39.946  54.486  0.00  0.00     0.272 C 
HETATM   21  N   UNK N   1      44.697  38.789  53.950  0.00  0.00     0.090 N 
HETATM   22  C   UNK N   1      43.253  38.922  54.274  0.00  0.00     0.299 C 
BRANCH  21  23
HETATM   23  C   UNK N   1      44.908  38.490  52.511  0.00  0.00     0.281 C 
BRANCH  23  24
HETATM   24  C   UNK N   1      43.920  37.467  51.914  0.00  0.00     0.133 C 
BRANCH  24  25
HETATM   25  C   UNK N   1      44.228  37.030  50.496  0.00  0.00     0.221 C 
HETATM   26  O   UNK N   1      45.168  37.562  49.920  0.00  0.00    -0.273 OA
HETATM   27  N   UNK N   1      43.451  36.125  49.823  0.00  0.00    -0.346 N 
HETATM   28  C   UNK N   1      43.672  35.802  48.430  0.00  0.00     0.132 C 
HETATM   29  C   UNK N   1      42.273  35.485  50.369  0.00  0.00     0.204 C 
HETATM   30  C   UNK N   1      42.328  35.205  48.016  0.00  0.00     0.100 C 
HETATM   31  C   UNK N   1      41.913  34.473  49.277  0.00  0.00     0.261 C 
HETATM   32  F   UNK N   1      40.577  34.111  49.294  0.00  0.00    -0.204 F 
HETATM   33  F   UNK N   1      42.703  33.341  49.412  0.00  0.00    -0.204 F 
ENDBRANCH  24  25
ENDBRANCH  23  24
ENDBRANCH  21  23
ENDBRANCH   1  17
BRANCH   4  34
HETATM   34  C   UNK N   1      38.580  40.576  56.518  0.00  0.00     0.272 C 
HETATM   35  O   UNK N   1      38.586  39.674  57.343  0.00  0.00    -0.266 OA
HETATM   36  N   UNK N   1      37.841  41.709  56.789  0.00  0.00    -0.343 N 
HETATM   37  C   UNK N   1      37.795  42.835  55.851  0.00  0.00     0.152 C 
HETATM   38  C   UNK N   1      37.261  41.834  58.136  0.00  0.00     0.152 C 
HETATM   39  C   UNK N   1      36.858  43.957  56.302  0.00  0.00     0.187 C 
HETATM   40  O   UNK N   1      37.016  44.199  57.684  0.00  0.00    -0.388 OA
HETATM   41  C   UNK N   1      36.432  43.102  58.352  0.00  0.00     0.187 C 
ENDBRANCH   4  34
TORSDOF 5
ENDMDL
MODEL 6
REMARK VINA RESULT:      -8.7      4.849      6.745
REMARK  5 active torsions:
REMARK  status: ('A' for Active; 'I' for Inactive)
REMARK    1  A    between atoms: C_2  and  C_3 
REMARK       I    between atoms: C_2  and  N_35 
REMARK    2  A    between atoms: C_3  and  C_4 
REMARK    3  A    between atoms: C_4  and  N_5 
REMARK    4  A    between atoms: C_9  and  N_10 
REMARK    5  A    between atoms: C_13  and  C_14 
REMARK       I    between atoms: C_14  and  N_16 
ROOT
HETATM    1  N   UNK N   1      41.854  38.444  52.300  0.00  0.00    -0.284 N 
HETATM    2  N   UNK N   1      40.777  38.756  53.014  0.00  0.00    -0.292 N 
ATOM      3  HN  UNK N   1      39.812  38.656  52.698  1.00  0.00     0.187 HD
HETATM    4  C   UNK N   1      41.160  39.225  54.219  0.00  0.00     0.126 A 
HETATM    5  C   UNK N   1      42.551  39.192  54.283  0.00  0.00     0.019 A 
HETATM    6  C   UNK N   1      42.970  38.673  53.051  0.00  0.00     0.072 A 
HETATM    7  C   UNK N   1      44.423  38.519  52.638  0.00  0.00     0.014 A 
HETATM    8  C   UNK N   1      44.850  37.599  51.654  0.00  0.00     0.015 A 
HETATM    9  C   UNK N   1      46.201  37.511  51.300  0.00  0.00     0.001 A 
HETATM   10  C   UNK N   1      47.150  38.324  51.922  0.00  0.00     0.002 A 
HETATM   11  C   UNK N   1      46.756  39.214  52.918  0.00  0.00     0.024 A 
HETATM   12  C   UNK N   1      45.409  39.303  53.279  0.00  0.00     0.072 A 
HETATM   13  S   UNK N   1      44.897  40.381  54.589  0.00  0.00     0.180 S 
HETATM   14  O   UNK N   1      44.609  41.787  54.039  0.00  0.00    -0.222 OA
HETATM   15  O   UNK N   1      46.031  40.624  55.596  0.00  0.00    -0.222 OA
HETATM   16  C   UNK N   1      43.447  39.698  55.389  0.00  0.00     0.189 C 
ENDROOT
BRANCH   1  17
HETATM   17  C   UNK N   1      41.755  38.128  50.862  0.00  0.00     0.137 C 
HETATM   18  C   UNK N   1      42.519  39.134  49.994  0.00  0.00     0.031 C 
HETATM   19  C   UNK N   1      42.370  38.738  48.517  0.00  0.00     0.032 C 
HETATM   20  C   UNK N   1      42.860  37.294  48.291  0.00  0.00     0.272 C 
HETATM   21  N   UNK N   1      42.172  36.313  49.165  0.00  0.00     0.090 N 
HETATM   22  C   UNK N   1      42.310  36.708  50.591  0.00  0.00     0.299 C 
BRANCH  21  23
HETATM   23  C   UNK N   1      40.761  36.015  48.816  0.00  0.00     0.281 C 
BRANCH  23  24
HETATM   24  C   UNK N   1      40.503  34.566  48.356  0.00  0.00     0.133 C 
BRANCH  24  25
HETATM   25  C   UNK N   1      41.202  34.167  47.071  0.00  0.00     0.221 C 
HETATM   26  O   UNK N   1      40.663  34.452  46.010  0.00  0.00    -0.273 OA
HETATM   27  N   UNK N   1      42.363  33.441  47.064  0.00  0.00    -0.346 N 
HETATM   28  C   UNK N   1      42.963  32.956  45.840  0.00  0.00     0.132 C 
HETATM   29  C   UNK N   1      43.054  32.982  48.249  0.00  0.00     0.204 C 
HETATM   30  C   UNK N   1      43.869  31.833  46.343  0.00  0.00     0.100 C 
HETATM   31  C   UNK N   1      44.344  32.391  47.671  0.00  0.00     0.261 C 
HETATM   32  F   UNK N   1      44.922  31.442  48.496  0.00  0.00    -0.204 F 
HETATM   33  F   UNK N   1      45.252  33.408  47.424  0.00  0.00    -0.204 F 
ENDBRANCH  24  25
ENDBRANCH  23  24
ENDBRANCH  21  23
ENDBRANCH   1  17
BRANCH   4  34
HETATM   34  C   UNK N   1      40.235  39.784  55.267  0.00  0.00     0.272 C 
HETATM   35  O   UNK N   1      39.899  40.955  55.159  0.00  0.00    -0.266 OA
HETATM   36  N   UNK N   1      39.708  39.043  56.306  0.00  0.00    -0.343 N 
HETATM   37  C   UNK N   1      40.057  37.632  56.491  0.00  0.00     0.152 C 
HETATM   38  C   UNK N   1      38.635  39.660  57.102  0.00  0.00     0.152 C 
HETATM   39  C   UNK N   1      39.429  37.016  57.743  0.00  0.00     0.187 C 
HETATM   40  O   UNK N   1      38.087  37.432  57.872  0.00  0.00    -0.388 OA
HETATM   41  C   UNK N   1      38.122  38.791  58.252  0.00  0.00     0.187 C 
ENDBRANCH   4  34
TORSDOF 5
ENDMDL
MODEL 7
REMARK VINA RESULT:      -8.6      4.937      8.907
REMARK  5 active torsions:
REMARK  status: ('A' for Active; 'I' for Inactive)
REMARK    1  A    between atoms: C_2  and  C_3 
REMARK       I    between atoms: C_2  and  N_35 
REMARK    2  A    between atoms: C_3  and  C_4 
REMARK    3  A    between atoms: C_4  and  N_5 
REMARK    4  A    between atoms: C_9  and  N_10 
REMARK    5  A    between atoms: C_13  and  C_14 
REMARK       I    between atoms: C_14  and  N_16 
ROOT
HETATM    1  N   UNK N   1      38.029  36.721  50.956  0.00  0.00    -0.284 N 
HETATM    2  N   UNK N   1      37.290  35.619  50.888  0.00  0.00    -0.292 N 
ATOM      3  HN  UNK N   1      36.444  35.443  51.429  1.00  0.00     0.187 HD
HETATM    4  C   UNK N   1      37.835  34.770  49.992  0.00  0.00     0.126 A 
HETATM    5  C   UNK N   1      38.968  35.370  49.449  0.00  0.00     0.019 A 
HETATM    6  C   UNK N   1      39.061  36.623  50.068  0.00  0.00     0.072 A 
HETATM    7  C   UNK N   1      40.191  37.611  49.835  0.00  0.00     0.014 A 
HETATM    8  C   UNK N   1      40.059  38.999  50.063  0.00  0.00     0.015 A 
HETATM    9  C   UNK N   1      41.140  39.861  49.847  0.00  0.00     0.001 A 
HETATM   10  C   UNK N   1      42.363  39.364  49.394  0.00  0.00     0.002 A 
HETATM   11  C   UNK N   1      42.505  38.004  49.132  0.00  0.00     0.024 A 
HETATM   12  C   UNK N   1      41.428  37.138  49.340  0.00  0.00     0.072 A 
HETATM   13  S   UNK N   1      41.568  35.415  48.950  0.00  0.00     0.180 S 
HETATM   14  O   UNK N   1      42.130  34.642  50.153  0.00  0.00    -0.222 OA
HETATM   15  O   UNK N   1      42.614  35.169  47.854  0.00  0.00    -0.222 OA
HETATM   16  C   UNK N   1      39.962  34.780  48.475  0.00  0.00     0.189 C 
ENDROOT
BRANCH   1  17
HETATM   17  C   UNK N   1      37.812  37.726  52.015  0.00  0.00     0.137 C 
HETATM   18  C   UNK N   1      36.442  38.404  51.898  0.00  0.00     0.031 C 
HETATM   19  C   UNK N   1      36.291  39.430  53.031  0.00  0.00     0.032 C 
HETATM   20  C   UNK N   1      36.484  38.756  54.404  0.00  0.00     0.272 C 
HETATM   21  N   UNK N   1      37.781  38.045  54.513  0.00  0.00     0.090 N 
HETATM   22  C   UNK N   1      37.926  37.062  53.409  0.00  0.00     0.299 C 
BRANCH  21  23
HETATM   23  C   UNK N   1      38.983  38.909  54.636  0.00  0.00     0.281 C 
BRANCH  23  24
HETATM   24  C   UNK N   1      40.112  38.321  55.506  0.00  0.00     0.133 C 
BRANCH  24  25
HETATM   25  C   UNK N   1      41.210  39.297  55.876  0.00  0.00     0.221 C 
HETATM   26  O   UNK N   1      41.088  39.937  56.912  0.00  0.00    -0.273 OA
HETATM   27  N   UNK N   1      42.283  39.536  55.059  0.00  0.00    -0.346 N 
HETATM   28  C   UNK N   1      43.266  40.557  55.354  0.00  0.00     0.132 C 
HETATM   29  C   UNK N   1      42.500  38.900  53.778  0.00  0.00     0.204 C 
HETATM   30  C   UNK N   1      43.911  40.793  53.989  0.00  0.00     0.100 C 
HETATM   31  C   UNK N   1      43.898  39.397  53.395  0.00  0.00     0.261 C 
HETATM   32  F   UNK N   1      44.126  39.373  52.030  0.00  0.00    -0.204 F 
HETATM   33  F   UNK N   1      44.857  38.633  54.041  0.00  0.00    -0.204 F 
ENDBRANCH  24  25
ENDBRANCH  23  24
ENDBRANCH  21  23
ENDBRANCH   1  17
BRANCH   4  34
HETATM   34  C   UNK N   1      37.351  33.371  49.716  0.00  0.00     0.272 C 
HETATM   35  O   UNK N   1      37.518  32.531  50.588  0.00  0.00    -0.266 OA
HETATM   36  N   UNK N   1      36.688  32.998  48.564  0.00  0.00    -0.343 N 
HETATM   37  C   UNK N   1      36.442  33.955  47.481  0.00  0.00     0.152 C 
HETATM   38  C   UNK N   1      36.065  31.665  48.542  0.00  0.00     0.152 C 
HETATM   39  C   UNK N   1      35.764  33.323  46.262  0.00  0.00     0.187 C 
HETATM   40  O   UNK N   1      34.738  32.446  46.675  0.00  0.00    -0.388 OA
HETATM   41  C   UNK N   1      35.374  31.313  47.223  0.00  0.00     0.187 C 
ENDBRANCH   4  34
TORSDOF 5
ENDMDL
MODEL 8
REMARK VINA RESULT:      -8.4      6.743      9.864
REMARK  5 active torsions:
REMARK  status: ('A' for Active; 'I' for Inactive)
REMARK    1  A    between atoms: C_2  and  C_3 
REMARK       I    between atoms: C_2  and  N_35 
REMARK    2  A    between atoms: C_3  and  C_4 
REMARK    3  A    between atoms: C_4  and  N_5 
REMARK    4  A    between atoms: C_9  and  N_10 
REMARK    5  A    between atoms: C_13  and  C_14 
REMARK       I    between atoms: C_14  and  N_16 
ROOT
HETATM    1  N   UNK N   1      39.021  38.874  53.645  0.00  0.00    -0.284 N 
HETATM    2  N   UNK N   1      39.197  40.090  54.147  0.00  0.00    -0.292 N 
ATOM      3  HN  UNK N   1      39.606  40.881  53.648  1.00  0.00     0.187 HD
HETATM    4  C   UNK N   1      38.752  40.117  55.421  0.00  0.00     0.126 A 
HETATM    5  C   UNK N   1      38.251  38.857  55.738  0.00  0.00     0.019 A 
HETATM    6  C   UNK N   1      38.418  38.086  54.582  0.00  0.00     0.072 A 
HETATM    7  C   UNK N   1      38.073  36.610  54.480  0.00  0.00     0.014 A 
HETATM    8  C   UNK N   1      37.792  35.968  53.254  0.00  0.00     0.015 A 
HETATM    9  C   UNK N   1      37.496  34.601  53.218  0.00  0.00     0.001 A 
HETATM   10  C   UNK N   1      37.464  33.852  54.396  0.00  0.00     0.002 A 
HETATM   11  C   UNK N   1      37.704  34.472  55.619  0.00  0.00     0.024 A 
HETATM   12  C   UNK N   1      37.995  35.838  55.662  0.00  0.00     0.072 A 
HETATM   13  S   UNK N   1      38.240  36.659  57.214  0.00  0.00     0.180 S 
HETATM   14  O   UNK N   1      39.712  36.561  57.640  0.00  0.00    -0.222 OA
HETATM   15  O   UNK N   1      37.496  35.945  58.352  0.00  0.00    -0.222 OA
HETATM   16  C   UNK N   1      37.727  38.369  57.069  0.00  0.00     0.189 C 
ENDROOT
BRANCH   1  17
HETATM   17  C   UNK N   1      39.624  38.482  52.356  0.00  0.00     0.137 C 
HETATM   18  C   UNK N   1      38.617  38.547  51.202  0.00  0.00     0.031 C 
HETATM   19  C   UNK N   1      39.316  38.128  49.900  0.00  0.00     0.032 C 
HETATM   20  C   UNK N   1      40.550  39.015  49.638  0.00  0.00     0.272 C 
HETATM   21  N   UNK N   1      41.508  39.010  50.769  0.00  0.00     0.090 N 
HETATM   22  C   UNK N   1      40.823  39.405  52.027  0.00  0.00     0.299 C 
BRANCH  21  23
HETATM   23  C   UNK N   1      42.294  37.762  50.944  0.00  0.00     0.281 C 
BRANCH  23  24
HETATM   24  C   UNK N   1      43.755  37.849  50.459  0.00  0.00     0.133 C 
BRANCH  24  25
HETATM   25  C   UNK N   1      44.783  38.056  51.552  0.00  0.00     0.221 C 
HETATM   26  O   UNK N   1      44.381  38.265  52.689  0.00  0.00    -0.273 OA
HETATM   27  N   UNK N   1      46.128  38.092  51.296  0.00  0.00    -0.346 N 
HETATM   28  C   UNK N   1      47.101  38.412  52.319  0.00  0.00     0.132 C 
HETATM   29  C   UNK N   1      46.721  37.934  49.986  0.00  0.00     0.204 C 
HETATM   30  C   UNK N   1      48.318  38.825  51.493  0.00  0.00     0.100 C 
HETATM   31  C   UNK N   1      48.218  37.888  50.304  0.00  0.00     0.261 C 
HETATM   32  F   UNK N   1      49.012  38.264  49.235  0.00  0.00    -0.204 F 
HETATM   33  F   UNK N   1      48.568  36.612  50.718  0.00  0.00    -0.204 F 
ENDBRANCH  24  25
ENDBRANCH  23  24
ENDBRANCH  21  23
ENDBRANCH   1  17
BRANCH   4  34
HETATM   34  C   UNK N   1      38.880  41.286  56.361  0.00  0.00     0.272 C 
HETATM   35  O   UNK N   1      39.925  41.398  56.987  0.00  0.00    -0.266 OA
HETATM   36  N   UNK N   1      37.914  42.259  56.518  0.00  0.00    -0.343 N 
HETATM   37  C   UNK N   1      36.642  42.197  55.792  0.00  0.00     0.152 C 
HETATM   38  C   UNK N   1      38.281  43.461  57.284  0.00  0.00     0.152 C 
HETATM   39  C   UNK N   1      35.680  43.326  56.166  0.00  0.00     0.187 C 
HETATM   40  O   UNK N   1      36.377  44.550  56.261  0.00  0.00    -0.388 OA
HETATM   41  C   UNK N   1      37.150  44.481  57.439  0.00  0.00     0.187 C 
ENDBRANCH   4  34
TORSDOF 5
ENDMDL
MODEL 9
REMARK VINA RESULT:      -8.3      4.047      6.631
REMARK  5 active torsions:
REMARK  status: ('A' for Active; 'I' for Inactive)
REMARK    1  A    between atoms: C_2  and  C_3 
REMARK       I    between atoms: C_2  and  N_35 
REMARK    2  A    between atoms: C_3  and  C_4 
REMARK    3  A    between atoms: C_4  and  N_5 
REMARK    4  A    between atoms: C_9  and  N_10 
REMARK    5  A    between atoms: C_13  and  C_14 
REMARK       I    between atoms: C_14  and  N_16 
ROOT
HETATM    1  N   UNK N   1      40.580  38.284  51.382  0.00  0.00    -0.284 N 
HETATM    2  N   UNK N   1      40.696  39.292  52.239  0.00  0.00    -0.292 N 
ATOM      3  HN  UNK N   1      41.483  39.940  52.284  1.00  0.00     0.187 HD
HETATM    4  C   UNK N   1      39.612  39.324  53.041  0.00  0.00     0.126 A 
HETATM    5  C   UNK N   1      38.754  38.295  52.662  0.00  0.00     0.019 A 
HETATM    6  C   UNK N   1      39.387  37.655  51.589  0.00  0.00     0.072 A 
HETATM    7  C   UNK N   1      38.847  36.420  50.890  0.00  0.00     0.014 A 
HETATM    8  C   UNK N   1      39.200  36.067  49.569  0.00  0.00     0.015 A 
HETATM    9  C   UNK N   1      38.684  34.907  48.979  0.00  0.00     0.001 A 
HETATM   10  C   UNK N   1      37.805  34.085  49.686  0.00  0.00     0.002 A 
HETATM   11  C   UNK N   1      37.417  34.432  50.978  0.00  0.00     0.024 A 
HETATM   12  C   UNK N   1      37.924  35.592  51.570  0.00  0.00     0.072 A 
HETATM   13  S   UNK N   1      37.393  36.084  53.187  0.00  0.00     0.180 S 
HETATM   14  O   UNK N   1      38.272  35.424  54.259  0.00  0.00    -0.222 OA
HETATM   15  O   UNK N   1      35.989  35.551  53.506  0.00  0.00    -0.222 OA
HETATM   16  C   UNK N   1      37.459  37.870  53.316  0.00  0.00     0.189 C 
ENDROOT
BRANCH   1  17
HETATM   17  C   UNK N   1      41.716  37.859  50.540  0.00  0.00     0.137 C 
HETATM   18  C   UNK N   1      42.786  38.949  50.418  0.00  0.00     0.031 C 
HETATM   19  C   UNK N   1      43.930  38.433  49.532  0.00  0.00     0.032 C 
HETATM   20  C   UNK N   1      44.507  37.121  50.099  0.00  0.00     0.272 C 
HETATM   21  N   UNK N   1      43.472  36.073  50.277  0.00  0.00     0.090 N 
HETATM   22  C   UNK N   1      42.364  36.581  51.126  0.00  0.00     0.299 C 
BRANCH  21  23
HETATM   23  C   UNK N   1      42.962  35.450  49.030  0.00  0.00     0.281 C 
BRANCH  23  24
HETATM   24  C   UNK N   1      42.330  34.056  49.219  0.00  0.00     0.133 C 
BRANCH  24  25
HETATM   25  C   UNK N   1      43.087  32.915  48.570  0.00  0.00     0.221 C 
HETATM   26  O   UNK N   1      43.670  32.122  49.299  0.00  0.00    -0.273 OA
HETATM   27  N   UNK N   1      43.201  32.790  47.211  0.00  0.00    -0.346 N 
HETATM   28  C   UNK N   1      44.027  31.773  46.596  0.00  0.00     0.132 C 
HETATM   29  C   UNK N   1      42.623  33.703  46.250  0.00  0.00     0.204 C 
HETATM   30  C   UNK N   1      44.242  32.334  45.191  0.00  0.00     0.100 C 
HETATM   31  C   UNK N   1      42.909  33.004  44.917  0.00  0.00     0.261 C 
HETATM   32  F   UNK N   1      42.938  33.876  43.843  0.00  0.00    -0.204 F 
HETATM   33  F   UNK N   1      41.958  32.020  44.693  0.00  0.00    -0.204 F 
ENDBRANCH  24  25
ENDBRANCH  23  24
ENDBRANCH  21  23
ENDBRANCH   1  17
BRANCH   4  34
HETATM   34  C   UNK N   1      39.424  40.253  54.211  0.00  0.00     0.272 C 
HETATM   35  O   UNK N   1      39.078  41.401  53.973  0.00  0.00    -0.266 OA
HETATM   36  N   UNK N   1      39.570  39.872  55.529  0.00  0.00    -0.343 N 
HETATM   37  C   UNK N   1      39.971  38.509  55.891  0.00  0.00     0.152 C 
HETATM   38  C   UNK N   1      39.118  40.818  56.562  0.00  0.00     0.152 C 
HETATM   39  C   UNK N   1      40.151  38.314  57.398  0.00  0.00     0.187 C 
HETATM   40  O   UNK N   1      39.105  38.950  58.101  0.00  0.00    -0.388 OA
HETATM   41  C   UNK N   1      39.338  40.338  57.999  0.00  0.00     0.187 C 
ENDBRANCH   4  34
TORSDOF 5
ENDMDL
