MODEL 1
REMARK VINA RESULT:      -9.1      0.000      0.000
REMARK  5 active torsions:
REMARK  status: ('A' for Active; 'I' for Inactive)
REMARK    1  A    between atoms: C_2  and  C_3 
REMARK       I    between atoms: C_2  and  N_33 
REMARK    2  A    between atoms: N_6  and  C_7 
REMARK    3  A    between atoms: N_10  and  C_11 
REMARK    4  A    between atoms: C_11  and  C_12 
REMARK    5  A    between atoms: C_12  and  C_13 
ROOT
HETATM    1  C   UNK N   1      40.506  38.348  49.880  0.00  0.00     0.126 A 
HETATM    2  N   UNK N   1      41.067  37.340  49.182  0.00  0.00    -0.292 N 
ATOM      3  HN  UNK N   1      40.601  36.793  48.458  1.00  0.00     0.187 HD
HETATM    4  N   UNK N   1      42.320  37.168  49.584  0.00  0.00    -0.284 N 
HETATM    5  C   UNK N   1      42.607  38.084  50.559  0.00  0.00     0.072 A 
HETATM    6  C   UNK N   1      41.445  38.838  50.780  0.00  0.00     0.019 A 
HETATM    7  C   UNK N   1      41.226  39.912  51.818  0.00  0.00     0.189 C 
HETATM    8  S   UNK N   1      42.411  39.643  53.135  0.00  0.00     0.183 S 
HETATM    9  O   UNK N   1      42.646  40.934  53.932  0.00  0.00    -0.222 OA
HETATM   10  O   UNK N   1      41.798  38.712  54.193  0.00  0.00    -0.222 OA
HETATM   11  C   UNK N   1      43.928  38.947  52.553  0.00  0.00     0.110 A 
HETATM   12  C   UNK N   1      45.108  39.096  53.292  0.00  0.00     0.138 A 
HETATM   13  F   UNK N   1      45.099  39.739  54.488  0.00  0.00    -0.204 F 
HETATM   14  C   UNK N   1      46.306  38.587  52.799  0.00  0.00     0.044 A 
HETATM   15  C   UNK N   1      46.334  37.948  51.562  0.00  0.00     0.004 A 
HETATM   16  C   UNK N   1      45.158  37.787  50.822  0.00  0.00     0.015 A 
HETATM   17  C   UNK N   1      43.918  38.257  51.318  0.00  0.00     0.018 A 
ENDROOT
BRANCH   4  18
HETATM   18  C   UNK N   1      43.142  36.005  49.171  0.00  0.00     0.138 C 
HETATM   19  C   UNK N   1      42.803  34.735  49.943  0.00  0.00     0.059 C 
HETATM   20  C   UNK N   1      41.646  34.164  49.148  0.00  0.00     0.274 C 
HETATM   21  N   UNK N   1      42.067  34.342  47.757  0.00  0.00     0.090 N 
HETATM   22  C   UNK N   1      42.871  35.580  47.719  0.00  0.00     0.299 C 
BRANCH  21  23
HETATM   23  C   UNK N   1      40.974  34.309  46.772  0.00  0.00     0.273 C 
BRANCH  23  24
HETATM   24  C   UNK N   1      41.244  33.281  45.657  0.00  0.00     0.035 C 
BRANCH  24  25
HETATM   25  C   UNK N   1      41.390  33.912  44.252  0.00  0.00    -0.009 C 
HETATM   26  C   UNK N   1      40.098  34.583  43.775  0.00  0.00     0.031 C 
HETATM   27  C   UNK N   1      40.321  35.000  42.290  0.00  0.00     0.168 C 
HETATM   28  O   UNK N   1      41.624  35.509  41.985  0.00  0.00    -0.391 OA
HETATM   29  C   UNK N   1      42.250  36.050  43.127  0.00  0.00     0.168 C 
HETATM   30  C   UNK N   1      42.538  34.956  44.179  0.00  0.00     0.031 C 
ENDBRANCH  24  25
ENDBRANCH  23  24
ENDBRANCH  21  23
ENDBRANCH   4  18
BRANCH   1  31
HETATM   31  C   UNK N   1      39.066  38.783  49.776  0.00  0.00     0.272 C 
HETATM   32  O   UNK N   1      38.782  39.590  48.904  0.00  0.00    -0.266 OA
HETATM   33  N   UNK N   1      38.064  38.350  50.622  0.00  0.00    -0.343 N 
HETATM   34  C   UNK N   1      36.759  39.023  50.534  0.00  0.00     0.152 C 
HETATM   35  C   UNK N   1      38.336  37.395  51.700  0.00  0.00     0.152 C 
HETATM   36  C   UNK N   1      35.678  38.406  51.424  0.00  0.00     0.187 C 
HETATM   37  O   UNK N   1      36.217  38.035  52.674  0.00  0.00    -0.388 OA
HETATM   38  C   UNK N   1      37.073  36.938  52.434  0.00  0.00     0.187 C 
ENDBRANCH   1  31
TORSDOF 5
ENDMDL
MODEL 2
REMARK VINA RESULT:      -9.1      2.691      3.506
REMARK  5 active torsions:
REMARK  status: ('A' for Active; 'I' for Inactive)
REMARK    1  A    between atoms: C_2  and  C_3 
REMARK       I    between atoms: C_2  and  N_33 
REMARK    2  A    between atoms: N_6  and  C_7 
REMARK    3  A    between atoms: N_10  and  C_11 
REMARK    4  A    between atoms: C_11  and  C_12 
REMARK    5  A    between atoms: C_12  and  C_13 
ROOT
HETATM    1  C   UNK N   1      39.593  38.554  51.597  0.00  0.00     0.126 A 
HETATM    2  N   UNK N   1      40.651  38.310  50.797  0.00  0.00    -0.292 N 
ATOM      3  HN  UNK N   1      40.599  37.939  49.848  1.00  0.00     0.187 HD
HETATM    4  N   UNK N   1      41.771  38.626  51.436  0.00  0.00    -0.284 N 
HETATM    5  C   UNK N   1      41.457  39.101  52.679  0.00  0.00     0.072 A 
HETATM    6  C   UNK N   1      40.062  39.041  52.811  0.00  0.00     0.019 A 
HETATM    7  C   UNK N   1      39.236  39.370  54.031  0.00  0.00     0.189 C 
HETATM    8  S   UNK N   1      40.301  39.220  55.464  0.00  0.00     0.183 S 
HETATM    9  O   UNK N   1      39.749  40.033  56.644  0.00  0.00    -0.222 OA
HETATM   10  O   UNK N   1      40.239  37.780  56.000  0.00  0.00    -0.222 OA
HETATM   11  C   UNK N   1      41.981  39.637  55.109  0.00  0.00     0.110 A 
HETATM   12  C   UNK N   1      42.847  40.038  56.135  0.00  0.00     0.138 A 
HETATM   13  F   UNK N   1      42.422  40.070  57.424  0.00  0.00    -0.204 F 
HETATM   14  C   UNK N   1      44.153  40.413  55.836  0.00  0.00     0.044 A 
HETATM   15  C   UNK N   1      44.593  40.409  54.515  0.00  0.00     0.004 A 
HETATM   16  C   UNK N   1      43.738  40.002  53.486  0.00  0.00     0.015 A 
HETATM   17  C   UNK N   1      42.417  39.575  53.764  0.00  0.00     0.018 A 
ENDROOT
BRANCH   4  18
HETATM   18  C   UNK N   1      43.115  38.275  50.917  0.00  0.00     0.138 C 
HETATM   19  C   UNK N   1      43.677  37.001  51.537  0.00  0.00     0.059 C 
HETATM   20  C   UNK N   1      43.086  35.918  50.657  0.00  0.00     0.274 C 
HETATM   21  N   UNK N   1      43.236  36.458  49.305  0.00  0.00     0.090 N 
HETATM   22  C   UNK N   1      43.095  37.923  49.421  0.00  0.00     0.299 C 
BRANCH  21  23
HETATM   23  C   UNK N   1      42.353  35.852  48.295  0.00  0.00     0.273 C 
BRANCH  23  24
HETATM   24  C   UNK N   1      41.787  34.501  48.773  0.00  0.00     0.035 C 
BRANCH  24  25
HETATM   25  C   UNK N   1      42.397  33.280  48.044  0.00  0.00    -0.009 C 
HETATM   26  C   UNK N   1      43.068  33.663  46.721  0.00  0.00     0.031 C 
HETATM   27  C   UNK N   1      43.463  32.335  46.008  0.00  0.00     0.168 C 
HETATM   28  O   UNK N   1      43.960  31.303  46.866  0.00  0.00    -0.391 OA
HETATM   29  C   UNK N   1      44.514  31.832  48.049  0.00  0.00     0.168 C 
HETATM   30  C   UNK N   1      43.434  32.518  48.914  0.00  0.00     0.031 C 
ENDBRANCH  24  25
ENDBRANCH  23  24
ENDBRANCH  21  23
ENDBRANCH   4  18
BRANCH   1  31
HETATM   31  C   UNK N   1      38.158  38.236  51.263  0.00  0.00     0.272 C 
HETATM   32  O   UNK N   1      37.536  39.059  50.607  0.00  0.00    -0.266 OA
HETATM   33  N   UNK N   1      37.501  37.096  51.679  0.00  0.00    -0.343 N 
HETATM   34  C   UNK N   1      36.048  37.026  51.459  0.00  0.00     0.152 C 
HETATM   35  C   UNK N   1      38.180  36.074  52.482  0.00  0.00     0.152 C 
HETATM   36  C   UNK N   1      35.422  35.685  51.845  0.00  0.00     0.187 C 
HETATM   37  O   UNK N   1      35.997  35.194  53.037  0.00  0.00    -0.388 OA
HETATM   38  C   UNK N   1      37.324  34.828  52.723  0.00  0.00     0.187 C 
ENDBRANCH   1  31
TORSDOF 5
ENDMDL
MODEL 3
REMARK VINA RESULT:      -8.5      4.556      7.944
REMARK  5 active torsions:
REMARK  status: ('A' for Active; 'I' for Inactive)
REMARK    1  A    between atoms: C_2  and  C_3 
REMARK       I    between atoms: C_2  and  N_33 
REMARK    2  A    between atoms: N_6  and  C_7 
REMARK    3  A    between atoms: N_10  and  C_11 
REMARK    4  A    between atoms: C_11  and  C_12 
REMARK    5  A    between atoms: C_12  and  C_13 
ROOT
HETATM    1  C   UNK N   1      39.353  38.947  53.140  0.00  0.00     0.126 A 
HETATM    2  N   UNK N   1      40.280  38.804  52.170  0.00  0.00    -0.292 N 
ATOM      3  HN  UNK N   1      41.132  39.357  52.084  1.00  0.00     0.187 HD
HETATM    4  N   UNK N   1      39.910  37.832  51.345  0.00  0.00    -0.284 N 
HETATM    5  C   UNK N   1      38.722  37.308  51.776  0.00  0.00     0.072 A 
HETATM    6  C   UNK N   1      38.335  38.027  52.916  0.00  0.00     0.019 A 
HETATM    7  C   UNK N   1      37.056  37.886  53.706  0.00  0.00     0.189 C 
HETATM    8  S   UNK N   1      35.831  37.148  52.626  0.00  0.00     0.183 S 
HETATM    9  O   UNK N   1      34.717  36.476  53.441  0.00  0.00    -0.222 OA
HETATM   10  O   UNK N   1      35.070  38.257  51.882  0.00  0.00    -0.222 OA
HETATM   11  C   UNK N   1      36.543  36.039  51.448  0.00  0.00     0.110 A 
HETATM   12  C   UNK N   1      35.765  35.035  50.857  0.00  0.00     0.138 A 
HETATM   13  F   UNK N   1      34.443  34.925  51.144  0.00  0.00    -0.204 F 
HETATM   14  C   UNK N   1      36.349  34.136  49.969  0.00  0.00     0.044 A 
HETATM   15  C   UNK N   1      37.710  34.222  49.686  0.00  0.00     0.004 A 
HETATM   16  C   UNK N   1      38.491  35.227  50.266  0.00  0.00     0.015 A 
HETATM   17  C   UNK N   1      37.916  36.181  51.139  0.00  0.00     0.018 A 
ENDROOT
BRANCH   4  18
HETATM   18  C   UNK N   1      40.597  37.570  50.058  0.00  0.00     0.138 C 
HETATM   19  C   UNK N   1      41.154  38.834  49.414  0.00  0.00     0.059 C 
HETATM   20  C   UNK N   1      42.509  38.973  50.077  0.00  0.00     0.274 C 
HETATM   21  N   UNK N   1      43.029  37.604  50.080  0.00  0.00     0.090 N 
HETATM   22  C   UNK N   1      41.861  36.713  50.231  0.00  0.00     0.299 C 
BRANCH  21  23
HETATM   23  C   UNK N   1      44.102  37.352  51.055  0.00  0.00     0.273 C 
BRANCH  23  24
HETATM   24  C   UNK N   1      43.686  37.767  52.479  0.00  0.00     0.035 C 
BRANCH  24  25
HETATM   25  C   UNK N   1      44.519  38.937  53.054  0.00  0.00    -0.009 C 
HETATM   26  C   UNK N   1      44.037  39.373  54.441  0.00  0.00     0.031 C 
HETATM   27  C   UNK N   1      44.824  40.665  54.813  0.00  0.00     0.168 C 
HETATM   28  O   UNK N   1      46.202  40.677  54.425  0.00  0.00    -0.391 OA
HETATM   29  C   UNK N   1      46.717  39.371  54.301  0.00  0.00     0.168 C 
HETATM   30  C   UNK N   1      46.034  38.607  53.145  0.00  0.00     0.031 C 
ENDBRANCH  24  25
ENDBRANCH  23  24
ENDBRANCH  21  23
ENDBRANCH   4  18
BRANCH   1  31
HETATM   31  C   UNK N   1      39.370  40.008  54.211  0.00  0.00     0.272 C 
HETATM   32  O   UNK N   1      39.170  41.163  53.863  0.00  0.00    -0.266 OA
HETATM   33  N   UNK N   1      39.626  39.759  55.543  0.00  0.00    -0.343 N 
HETATM   34  C   UNK N   1      39.821  40.917  56.430  0.00  0.00     0.152 C 
HETATM   35  C   UNK N   1      39.890  38.401  56.029  0.00  0.00     0.152 C 
HETATM   36  C   UNK N   1      39.987  40.552  57.906  0.00  0.00     0.187 C 
HETATM   37  O   UNK N   1      40.782  39.395  58.045  0.00  0.00    -0.388 OA
HETATM   38  C   UNK N   1      40.015  38.318  57.552  0.00  0.00     0.187 C 
ENDBRANCH   1  31
TORSDOF 5
ENDMDL
MODEL 4
REMARK VINA RESULT:      -7.9      4.393      9.278
REMARK  5 active torsions:
REMARK  status: ('A' for Active; 'I' for Inactive)
REMARK    1  A    between atoms: C_2  and  C_3 
REMARK       I    between atoms: C_2  and  N_33 
REMARK    2  A    between atoms: N_6  and  C_7 
REMARK    3  A    between atoms: N_10  and  C_11 
REMARK    4  A    between atoms: C_11  and  C_12 
REMARK    5  A    between atoms: C_12  and  C_13 
ROOT
HETATM    1  C   UNK N   1      38.238  38.342  53.097  0.00  0.00     0.126 A 
HETATM    2  N   UNK N   1      38.854  38.573  54.275  0.00  0.00    -0.292 N 
ATOM      3  HN  UNK N   1      39.752  38.179  54.558  1.00  0.00     0.187 HD
HETATM    4  N   UNK N   1      38.111  39.392  55.009  0.00  0.00    -0.284 N 
HETATM    5  C   UNK N   1      36.985  39.724  54.307  0.00  0.00     0.072 A 
HETATM    6  C   UNK N   1      37.037  39.041  53.083  0.00  0.00     0.019 A 
HETATM    7  C   UNK N   1      35.987  39.009  51.999  0.00  0.00     0.189 C 
HETATM    8  S   UNK N   1      34.416  39.423  52.754  0.00  0.00     0.183 S 
HETATM    9  O   UNK N   1      33.424  39.944  51.704  0.00  0.00    -0.222 OA
HETATM   10  O   UNK N   1      33.728  38.138  53.244  0.00  0.00    -0.222 OA
HETATM   11  C   UNK N   1      34.586  40.545  54.109  0.00  0.00     0.110 A 
HETATM   12  C   UNK N   1      33.506  41.340  54.514  0.00  0.00     0.138 A 
HETATM   13  F   UNK N   1      32.299  41.230  53.903  0.00  0.00    -0.204 F 
HETATM   14  C   UNK N   1      33.668  42.256  55.550  0.00  0.00     0.044 A 
HETATM   15  C   UNK N   1      34.908  42.396  56.167  0.00  0.00     0.004 A 
HETATM   16  C   UNK N   1      35.989  41.600  55.774  0.00  0.00     0.015 A 
HETATM   17  C   UNK N   1      35.843  40.631  54.753  0.00  0.00     0.018 A 
ENDROOT
BRANCH   4  18
HETATM   18  C   UNK N   1      38.398  39.671  56.436  0.00  0.00     0.138 C 
HETATM   19  C   UNK N   1      38.949  38.459  57.179  0.00  0.00     0.059 C 
HETATM   20  C   UNK N   1      40.434  38.543  56.892  0.00  0.00     0.274 C 
HETATM   21  N   UNK N   1      40.732  39.968  57.054  0.00  0.00     0.090 N 
HETATM   22  C   UNK N   1      39.526  40.699  56.619  0.00  0.00     0.299 C 
BRANCH  21  23
HETATM   23  C   UNK N   1      41.972  40.417  56.400  0.00  0.00     0.273 C 
BRANCH  23  24
HETATM   24  C   UNK N   1      42.069  39.904  54.950  0.00  0.00     0.035 C 
BRANCH  24  25
HETATM   25  C   UNK N   1      43.457  39.325  54.589  0.00  0.00    -0.009 C 
HETATM   26  C   UNK N   1      43.695  39.272  53.077  0.00  0.00     0.031 C 
HETATM   27  C   UNK N   1      45.029  38.500  52.850  0.00  0.00     0.168 C 
HETATM   28  O   UNK N   1      46.068  38.780  53.794  0.00  0.00    -0.391 OA
HETATM   29  C   UNK N   1      45.908  40.052  54.380  0.00  0.00     0.168 C 
HETATM   30  C   UNK N   1      44.626  40.116  55.239  0.00  0.00     0.031 C 
ENDBRANCH  24  25
ENDBRANCH  23  24
ENDBRANCH  21  23
ENDBRANCH   4  18
BRANCH   1  31
HETATM   31  C   UNK N   1      38.724  37.390  52.033  0.00  0.00     0.272 C 
HETATM   32  O   UNK N   1      38.192  36.291  51.974  0.00  0.00    -0.266 OA
HETATM   33  N   UNK N   1      39.746  37.673  51.150  0.00  0.00    -0.343 N 
HETATM   34  C   UNK N   1      40.251  36.573  50.314  0.00  0.00     0.152 C 
HETATM   35  C   UNK N   1      40.439  38.965  51.173  0.00  0.00     0.152 C 
HETATM   36  C   UNK N   1      41.301  37.000  49.288  0.00  0.00     0.187 C 
HETATM   37  O   UNK N   1      42.186  37.946  49.847  0.00  0.00    -0.388 OA
HETATM   38  C   UNK N   1      41.442  39.133  50.030  0.00  0.00     0.187 C 
ENDBRANCH   1  31
TORSDOF 5
ENDMDL
MODEL 5
REMARK VINA RESULT:      -7.8      3.437      6.462
REMARK  5 active torsions:
REMARK  status: ('A' for Active; 'I' for Inactive)
REMARK    1  A    between atoms: C_2  and  C_3 
REMARK       I    between atoms: C_2  and  N_33 
REMARK    2  A    between atoms: N_6  and  C_7 
REMARK    3  A    between atoms: N_10  and  C_11 
REMARK    4  A    between atoms: C_11  and  C_12 
REMARK    5  A    between atoms: C_12  and  C_13 
ROOT
HETATM    1  C   UNK N   1      43.998  38.796  53.024  0.00  0.00     0.126 A 
HETATM    2  N   UNK N   1      43.138  38.679  51.992  0.00  0.00    -0.292 N 
ATOM      3  HN  UNK N   1      43.395  38.433  51.036  1.00  0.00     0.187 HD
HETATM    4  N   UNK N   1      41.905  38.932  52.413  0.00  0.00    -0.284 N 
HETATM    5  C   UNK N   1      41.938  39.212  53.752  0.00  0.00     0.072 A 
HETATM    6  C   UNK N   1      43.279  39.153  54.159  0.00  0.00     0.019 A 
HETATM    7  C   UNK N   1      43.844  39.471  55.523  0.00  0.00     0.189 C 
HETATM    8  S   UNK N   1      42.678  40.548  56.355  0.00  0.00     0.183 S 
HETATM    9  O   UNK N   1      42.867  40.486  57.877  0.00  0.00    -0.222 OA
HETATM   10  O   UNK N   1      43.020  42.013  56.041  0.00  0.00    -0.222 OA
HETATM   11  C   UNK N   1      41.004  40.228  55.888  0.00  0.00     0.110 A 
HETATM   12  C   UNK N   1      39.947  40.599  56.730  0.00  0.00     0.138 A 
HETATM   13  F   UNK N   1      40.189  41.251  57.896  0.00  0.00    -0.204 F 
HETATM   14  C   UNK N   1      38.636  40.296  56.374  0.00  0.00     0.044 A 
HETATM   15  C   UNK N   1      38.377  39.605  55.193  0.00  0.00     0.004 A 
HETATM   16  C   UNK N   1      39.426  39.238  54.344  0.00  0.00     0.015 A 
HETATM   17  C   UNK N   1      40.766  39.570  54.658  0.00  0.00     0.018 A 
ENDROOT
BRANCH   4  18
HETATM   18  C   UNK N   1      40.760  39.098  51.486  0.00  0.00     0.138 C 
HETATM   19  C   UNK N   1      41.140  39.820  50.198  0.00  0.00     0.059 C 
HETATM   20  C   UNK N   1      41.648  38.690  49.325  0.00  0.00     0.274 C 
HETATM   21  N   UNK N   1      40.679  37.617  49.558  0.00  0.00     0.090 N 
HETATM   22  C   UNK N   1      40.231  37.755  50.958  0.00  0.00     0.299 C 
BRANCH  21  23
HETATM   23  C   UNK N   1      41.157  36.268  49.214  0.00  0.00     0.273 C 
BRANCH  23  24
HETATM   24  C   UNK N   1      42.562  36.306  48.583  0.00  0.00     0.035 C 
BRANCH  24  25
HETATM   25  C   UNK N   1      43.088  34.915  48.157  0.00  0.00    -0.009 C 
HETATM   26  C   UNK N   1      42.671  33.807  49.129  0.00  0.00     0.031 C 
HETATM   27  C   UNK N   1      43.418  32.511  48.695  0.00  0.00     0.168 C 
HETATM   28  O   UNK N   1      43.526  32.310  47.282  0.00  0.00    -0.391 OA
HETATM   29  C   UNK N   1      42.499  32.978  46.583  0.00  0.00     0.168 C 
HETATM   30  C   UNK N   1      42.627  34.510  46.730  0.00  0.00     0.031 C 
ENDBRANCH  24  25
ENDBRANCH  23  24
ENDBRANCH  21  23
ENDBRANCH   4  18
BRANCH   1  31
HETATM   31  C   UNK N   1      45.498  38.676  52.926  0.00  0.00     0.272 C 
HETATM   32  O   UNK N   1      46.156  39.030  53.893  0.00  0.00    -0.266 OA
HETATM   33  N   UNK N   1      46.166  38.225  51.806  0.00  0.00    -0.343 N 
HETATM   34  C   UNK N   1      47.630  38.366  51.781  0.00  0.00     0.152 C 
HETATM   35  C   UNK N   1      45.441  37.800  50.605  0.00  0.00     0.152 C 
HETATM   36  C   UNK N   1      48.297  37.738  50.556  0.00  0.00     0.187 C 
HETATM   37  O   UNK N   1      47.528  37.976  49.396  0.00  0.00    -0.388 OA
HETATM   38  C   UNK N   1      46.353  37.206  49.528  0.00  0.00     0.187 C 
ENDBRANCH   1  31
TORSDOF 5
ENDMDL
MODEL 6
REMARK VINA RESULT:      -7.7      4.145      8.395
REMARK  5 active torsions:
REMARK  status: ('A' for Active; 'I' for Inactive)
REMARK    1  A    between atoms: C_2  and  C_3 
REMARK       I    between atoms: C_2  and  N_33 
REMARK    2  A    between atoms: N_6  and  C_7 
REMARK    3  A    between atoms: N_10  and  C_11 
REMARK    4  A    between atoms: C_11  and  C_12 
REMARK    5  A    between atoms: C_12  and  C_13 
ROOT
HETATM    1  C   UNK N   1      41.067  37.562  50.974  0.00  0.00     0.126 A 
HETATM    2  N   UNK N   1      40.848  38.391  52.015  0.00  0.00    -0.292 N 
ATOM      3  HN  UNK N   1      39.931  38.693  52.345  1.00  0.00     0.187 HD
HETATM    4  N   UNK N   1      42.010  38.754  52.544  0.00  0.00    -0.284 N 
HETATM    5  C   UNK N   1      43.024  38.148  51.853  0.00  0.00     0.072 A 
HETATM    6  C   UNK N   1      42.439  37.396  50.824  0.00  0.00     0.019 A 
HETATM    7  C   UNK N   1      43.141  36.617  49.737  0.00  0.00     0.189 C 
HETATM    8  S   UNK N   1      44.783  37.308  49.551  0.00  0.00     0.183 S 
HETATM    9  O   UNK N   1      45.733  36.291  48.902  0.00  0.00    -0.222 OA
HETATM   10  O   UNK N   1      44.749  38.437  48.508  0.00  0.00    -0.222 OA
HETATM   11  C   UNK N   1      45.434  37.937  51.069  0.00  0.00     0.110 A 
HETATM   12  C   UNK N   1      46.816  38.073  51.248  0.00  0.00     0.138 A 
HETATM   13  F   UNK N   1      47.677  37.766  50.244  0.00  0.00    -0.204 F 
HETATM   14  C   UNK N   1      47.318  38.522  52.466  0.00  0.00     0.044 A 
HETATM   15  C   UNK N   1      46.447  38.815  53.513  0.00  0.00     0.004 A 
HETATM   16  C   UNK N   1      45.065  38.690  53.338  0.00  0.00     0.015 A 
HETATM   17  C   UNK N   1      44.523  38.277  52.098  0.00  0.00     0.018 A 
ENDROOT
BRANCH   4  18
HETATM   18  C   UNK N   1      42.127  39.825  53.562  0.00  0.00     0.138 C 
HETATM   19  C   UNK N   1      40.925  40.761  53.580  0.00  0.00     0.059 C 
HETATM   20  C   UNK N   1      39.956  40.037  54.493  0.00  0.00     0.274 C 
HETATM   21  N   UNK N   1      40.807  39.569  55.589  0.00  0.00     0.090 N 
HETATM   22  C   UNK N   1      42.127  39.274  54.997  0.00  0.00     0.299 C 
BRANCH  21  23
HETATM   23  C   UNK N   1      40.245  38.460  56.377  0.00  0.00     0.273 C 
BRANCH  23  24
HETATM   24  C   UNK N   1      39.943  38.886  57.826  0.00  0.00     0.035 C 
BRANCH  24  25
HETATM   25  C   UNK N   1      40.049  40.412  58.058  0.00  0.00    -0.009 C 
HETATM   26  C   UNK N   1      38.693  41.117  57.949  0.00  0.00     0.031 C 
HETATM   27  C   UNK N   1      38.968  42.649  58.010  0.00  0.00     0.168 C 
HETATM   28  O   UNK N   1      39.987  43.054  58.931  0.00  0.00    -0.391 OA
HETATM   29  C   UNK N   1      40.147  42.117  59.972  0.00  0.00     0.168 C 
HETATM   30  C   UNK N   1      40.675  40.768  59.435  0.00  0.00     0.031 C 
ENDBRANCH  24  25
ENDBRANCH  23  24
ENDBRANCH  21  23
ENDBRANCH   4  18
BRANCH   1  31
HETATM   31  C   UNK N   1      40.002  37.012  50.060  0.00  0.00     0.272 C 
HETATM   32  O   UNK N   1      40.150  37.176  48.858  0.00  0.00    -0.266 OA
HETATM   33  N   UNK N   1      38.864  36.367  50.499  0.00  0.00    -0.343 N 
HETATM   34  C   UNK N   1      37.816  36.078  49.507  0.00  0.00     0.152 C 
HETATM   35  C   UNK N   1      38.613  36.149  51.927  0.00  0.00     0.152 C 
HETATM   36  C   UNK N   1      36.645  35.263  50.056  0.00  0.00     0.187 C 
HETATM   37  O   UNK N   1      36.307  35.692  51.357  0.00  0.00    -0.388 OA
HETATM   38  C   UNK N   1      37.370  35.298  52.199  0.00  0.00     0.187 C 
ENDBRANCH   1  31
TORSDOF 5
ENDMDL
MODEL 7
REMARK VINA RESULT:      -7.4      3.920      7.458
REMARK  5 active torsions:
REMARK  status: ('A' for Active; 'I' for Inactive)
REMARK    1  A    between atoms: C_2  and  C_3 
REMARK       I    between atoms: C_2  and  N_33 
REMARK    2  A    between atoms: N_6  and  C_7 
REMARK    3  A    between atoms: N_10  and  C_11 
REMARK    4  A    between atoms: C_11  and  C_12 
REMARK    5  A    between atoms: C_12  and  C_13 
ROOT
HETATM    1  C   UNK N   1      40.879  37.599  51.025  0.00  0.00     0.126 A 
HETATM    2  N   UNK N   1      40.674  38.392  52.096  0.00  0.00    -0.292 N 
ATOM      3  HN  UNK N   1      39.762  38.689  52.444  1.00  0.00     0.187 HD
HETATM    4  N   UNK N   1      41.843  38.727  52.628  0.00  0.00    -0.284 N 
HETATM    5  C   UNK N   1      42.847  38.139  51.909  0.00  0.00     0.072 A 
HETATM    6  C   UNK N   1      42.249  37.428  50.859  0.00  0.00     0.019 A 
HETATM    7  C   UNK N   1      42.936  36.683  49.740  0.00  0.00     0.189 C 
HETATM    8  S   UNK N   1      44.583  37.368  49.565  0.00  0.00     0.183 S 
HETATM    9  O   UNK N   1      45.520  36.368  48.873  0.00  0.00    -0.222 OA
HETATM   10  O   UNK N   1      44.550  38.533  48.563  0.00  0.00    -0.222 OA
HETATM   11  C   UNK N   1      45.249  37.938  51.099  0.00  0.00     0.110 A 
HETATM   12  C   UNK N   1      46.634  38.058  51.273  0.00  0.00     0.138 A 
HETATM   13  F   UNK N   1      47.485  37.780  50.252  0.00  0.00    -0.204 F 
HETATM   14  C   UNK N   1      47.148  38.459  52.502  0.00  0.00     0.044 A 
HETATM   15  C   UNK N   1      46.287  38.721  53.565  0.00  0.00     0.004 A 
HETATM   16  C   UNK N   1      44.903  38.612  53.397  0.00  0.00     0.015 A 
HETATM   17  C   UNK N   1      44.349  38.247  52.146  0.00  0.00     0.018 A 
ENDROOT
BRANCH   4  18
HETATM   18  C   UNK N   1      41.976  39.760  53.683  0.00  0.00     0.138 C 
HETATM   19  C   UNK N   1      40.968  40.894  53.534  0.00  0.00     0.059 C 
HETATM   20  C   UNK N   1      39.752  40.352  54.257  0.00  0.00     0.274 C 
HETATM   21  N   UNK N   1      40.317  39.741  55.462  0.00  0.00     0.090 N 
HETATM   22  C   UNK N   1      41.645  39.218  55.083  0.00  0.00     0.299 C 
BRANCH  21  23
HETATM   23  C   UNK N   1      39.448  38.748  56.116  0.00  0.00     0.273 C 
BRANCH  23  24
HETATM   24  C   UNK N   1      39.189  37.532  55.206  0.00  0.00     0.035 C 
BRANCH  24  25
HETATM   25  C   UNK N   1      38.236  36.484  55.828  0.00  0.00    -0.009 C 
HETATM   26  C   UNK N   1      38.717  35.994  57.197  0.00  0.00     0.031 C 
HETATM   27  C   UNK N   1      37.784  34.818  57.616  0.00  0.00     0.168 C 
HETATM   28  O   UNK N   1      36.401  34.987  57.288  0.00  0.00    -0.391 OA
HETATM   29  C   UNK N   1      36.057  36.349  57.173  0.00  0.00     0.168 C 
HETATM   30  C   UNK N   1      36.782  37.011  55.981  0.00  0.00     0.031 C 
ENDBRANCH  24  25
ENDBRANCH  23  24
ENDBRANCH  21  23
ENDBRANCH   4  18
BRANCH   1  31
HETATM   31  C   UNK N   1      39.803  37.089  50.100  0.00  0.00     0.272 C 
HETATM   32  O   UNK N   1      39.900  37.368  48.914  0.00  0.00    -0.266 OA
HETATM   33  N   UNK N   1      38.708  36.360  50.516  0.00  0.00    -0.343 N 
HETATM   34  C   UNK N   1      37.636  36.118  49.537  0.00  0.00     0.152 C 
HETATM   35  C   UNK N   1      38.518  36.003  51.925  0.00  0.00     0.152 C 
HETATM   36  C   UNK N   1      36.518  35.208  50.047  0.00  0.00     0.187 C 
HETATM   37  O   UNK N   1      36.213  35.504  51.393  0.00  0.00    -0.388 OA
HETATM   38  C   UNK N   1      37.320  35.080  52.159  0.00  0.00     0.187 C 
ENDBRANCH   1  31
TORSDOF 5
ENDMDL
MODEL 8
REMARK VINA RESULT:      -7.4      4.198      7.350
REMARK  5 active torsions:
REMARK  status: ('A' for Active; 'I' for Inactive)
REMARK    1  A    between atoms: C_2  and  C_3 
REMARK       I    between atoms: C_2  and  N_33 
REMARK    2  A    between atoms: N_6  and  C_7 
REMARK    3  A    between atoms: N_10  and  C_11 
REMARK    4  A    between atoms: C_11  and  C_12 
REMARK    5  A    between atoms: C_12  and  C_13 
ROOT
HETATM    1  C   UNK N   1      41.933  39.365  53.471  0.00  0.00     0.126 A 
HETATM    2  N   UNK N   1      41.999  38.736  52.280  0.00  0.00    -0.292 N 
ATOM      3  HN  UNK N   1      42.858  38.537  51.766  1.00  0.00     0.187 HD
HETATM    4  N   UNK N   1      40.775  38.417  51.879  0.00  0.00    -0.284 N 
HETATM    5  C   UNK N   1      39.875  38.828  52.824  0.00  0.00     0.072 A 
HETATM    6  C   UNK N   1      40.597  39.461  53.845  0.00  0.00     0.019 A 
HETATM    7  C   UNK N   1      40.050  40.160  55.066  0.00  0.00     0.189 C 
HETATM    8  S   UNK N   1      38.361  40.637  54.706  0.00  0.00     0.183 S 
HETATM    9  O   UNK N   1      37.563  40.845  56.001  0.00  0.00    -0.222 OA
HETATM   10  O   UNK N   1      38.347  42.043  54.083  0.00  0.00    -0.222 OA
HETATM   11  C   UNK N   1      37.554  39.508  53.612  0.00  0.00     0.110 A 
HETATM   12  C   UNK N   1      36.156  39.423  53.582  0.00  0.00     0.138 A 
HETATM   13  F   UNK N   1      35.397  40.237  54.359  0.00  0.00    -0.204 F 
HETATM   14  C   UNK N   1      35.534  38.494  52.752  0.00  0.00     0.044 A 
HETATM   15  C   UNK N   1      36.302  37.636  51.970  0.00  0.00     0.004 A 
HETATM   16  C   UNK N   1      37.698  37.720  51.988  0.00  0.00     0.015 A 
HETATM   17  C   UNK N   1      38.357  38.683  52.789  0.00  0.00     0.018 A 
ENDROOT
BRANCH   4  18
HETATM   18  C   UNK N   1      40.484  37.913  50.516  0.00  0.00     0.138 C 
HETATM   19  C   UNK N   1      40.634  38.984  49.442  0.00  0.00     0.059 C 
HETATM   20  C   UNK N   1      42.113  38.922  49.119  0.00  0.00     0.274 C 
HETATM   21  N   UNK N   1      42.391  37.485  49.068  0.00  0.00     0.090 N 
HETATM   22  C   UNK N   1      41.494  36.850  50.054  0.00  0.00     0.299 C 
BRANCH  21  23
HETATM   23  C   UNK N   1      43.809  37.124  49.231  0.00  0.00     0.273 C 
BRANCH  23  24
HETATM   24  C   UNK N   1      44.736  38.327  48.971  0.00  0.00     0.035 C 
BRANCH  24  25
HETATM   25  C   UNK N   1      46.125  38.194  49.638  0.00  0.00    -0.009 C 
HETATM   26  C   UNK N   1      46.681  36.769  49.557  0.00  0.00     0.031 C 
HETATM   27  C   UNK N   1      47.975  36.732  50.424  0.00  0.00     0.168 C 
HETATM   28  O   UNK N   1      48.801  37.898  50.342  0.00  0.00    -0.391 OA
HETATM   29  C   UNK N   1      48.608  38.587  49.127  0.00  0.00     0.168 C 
HETATM   30  C   UNK N   1      47.178  39.163  49.032  0.00  0.00     0.031 C 
ENDBRANCH  24  25
ENDBRANCH  23  24
ENDBRANCH  21  23
ENDBRANCH   4  18
BRANCH   1  31
HETATM   31  C   UNK N   1      43.105  39.963  54.206  0.00  0.00     0.272 C 
HETATM   32  O   UNK N   1      42.878  40.889  54.972  0.00  0.00    -0.266 OA
HETATM   33  N   UNK N   1      44.413  39.553  54.043  0.00  0.00    -0.343 N 
HETATM   34  C   UNK N   1      45.468  40.370  54.662  0.00  0.00     0.152 C 
HETATM   35  C   UNK N   1      44.761  38.460  53.129  0.00  0.00     0.152 C 
HETATM   36  C   UNK N   1      46.873  39.782  54.527  0.00  0.00     0.187 C 
HETATM   37  O   UNK N   1      47.054  39.218  53.246  0.00  0.00    -0.388 OA
HETATM   38  C   UNK N   1      46.238  38.067  53.194  0.00  0.00     0.187 C 
ENDBRANCH   1  31
TORSDOF 5
ENDMDL
MODEL 9
REMARK VINA RESULT:      -7.4      4.065      6.444
REMARK  5 active torsions:
REMARK  status: ('A' for Active; 'I' for Inactive)
REMARK    1  A    between atoms: C_2  and  C_3 
REMARK       I    between atoms: C_2  and  N_33 
REMARK    2  A    between atoms: N_6  and  C_7 
REMARK    3  A    between atoms: N_10  and  C_11 
REMARK    4  A    between atoms: C_11  and  C_12 
REMARK    5  A    between atoms: C_12  and  C_13 
ROOT
HETATM    1  C   UNK N   1      40.601  39.782  52.871  0.00  0.00     0.126 A 
HETATM    2  N   UNK N   1      39.969  39.140  51.868  0.00  0.00    -0.292 N 
ATOM      3  HN  UNK N   1      38.958  39.057  51.765  1.00  0.00     0.187 HD
HETATM    4  N   UNK N   1      40.868  38.630  51.035  0.00  0.00    -0.284 N 
HETATM    5  C   UNK N   1      42.122  38.947  51.481  0.00  0.00     0.072 A 
HETATM    6  C   UNK N   1      41.972  39.668  52.674  0.00  0.00     0.019 A 
HETATM    7  C   UNK N   1      43.061  40.165  53.595  0.00  0.00     0.189 C 
HETATM    8  S   UNK N   1      44.516  39.161  53.305  0.00  0.00     0.183 S 
HETATM    9  O   UNK N   1      45.786  39.895  53.755  0.00  0.00    -0.222 OA
HETATM   10  O   UNK N   1      44.492  37.942  54.242  0.00  0.00    -0.222 OA
HETATM   11  C   UNK N   1      44.637  38.606  51.631  0.00  0.00     0.110 A 
HETATM   12  C   UNK N   1      45.876  38.234  51.093  0.00  0.00     0.138 A 
HETATM   13  F   UNK N   1      46.996  38.251  51.861  0.00  0.00    -0.204 F 
HETATM   14  C   UNK N   1      45.967  37.847  49.760  0.00  0.00     0.044 A 
HETATM   15  C   UNK N   1      44.830  37.850  48.955  0.00  0.00     0.004 A 
HETATM   16  C   UNK N   1      43.588  38.212  49.487  0.00  0.00     0.015 A 
HETATM   17  C   UNK N   1      43.457  38.569  50.851  0.00  0.00     0.018 A 
ENDROOT
BRANCH   4  18
HETATM   18  C   UNK N   1      40.510  37.686  49.950  0.00  0.00     0.138 C 
HETATM   19  C   UNK N   1      40.406  36.243  50.430  0.00  0.00     0.059 C 
HETATM   20  C   UNK N   1      38.979  36.164  50.932  0.00  0.00     0.274 C 
HETATM   21  N   UNK N   1      38.216  36.877  49.905  0.00  0.00     0.090 N 
HETATM   22  C   UNK N   1      39.101  37.940  49.390  0.00  0.00     0.299 C 
BRANCH  21  23
HETATM   23  C   UNK N   1      36.894  37.357  50.339  0.00  0.00     0.273 C 
BRANCH  23  24
HETATM   24  C   UNK N   1      36.602  36.973  51.802  0.00  0.00     0.035 C 
BRANCH  24  25
HETATM   25  C   UNK N   1      36.580  38.181  52.769  0.00  0.00    -0.009 C 
HETATM   26  C   UNK N   1      35.196  38.830  52.863  0.00  0.00     0.031 C 
HETATM   27  C   UNK N   1      35.357  40.131  53.705  0.00  0.00     0.168 C 
HETATM   28  O   UNK N   1      36.253  40.035  54.818  0.00  0.00    -0.391 OA
HETATM   29  C   UNK N   1      36.376  38.705  55.271  0.00  0.00     0.168 C 
HETATM   30  C   UNK N   1      37.044  37.810  54.204  0.00  0.00     0.031 C 
ENDBRANCH  24  25
ENDBRANCH  23  24
ENDBRANCH  21  23
ENDBRANCH   4  18
BRANCH   1  31
HETATM   31  C   UNK N   1      39.925  40.411  54.064  0.00  0.00     0.272 C 
HETATM   32  O   UNK N   1      39.450  41.528  53.919  0.00  0.00    -0.266 OA
HETATM   33  N   UNK N   1      39.841  39.818  55.307  0.00  0.00    -0.343 N 
HETATM   34  C   UNK N   1      39.345  40.638  56.423  0.00  0.00     0.152 C 
HETATM   35  C   UNK N   1      40.402  38.487  55.557  0.00  0.00     0.152 C 
HETATM   36  C   UNK N   1      39.177  39.871  57.735  0.00  0.00     0.187 C 
HETATM   37  O   UNK N   1      40.244  38.967  57.922  0.00  0.00    -0.388 OA
HETATM   38  C   UNK N   1      40.085  37.951  56.955  0.00  0.00     0.187 C 
ENDBRANCH   1  31
TORSDOF 5
ENDMDL
