MODEL 1
REMARK VINA RESULT:      -8.4      0.000      0.000
REMARK  6 active torsions:
REMARK  status: ('A' for Active; 'I' for Inactive)
REMARK    1  A    between atoms: O_2  and  C_3 
REMARK    2  A    between atoms: C_14  and  C_15 
REMARK       I    between atoms: C_15  and  N_17 
REMARK    3  A    between atoms: N_25  and  C_26 
REMARK    4  A    between atoms: N_30  and  C_31 
REMARK    5  A    between atoms: C_31  and  C_32 
REMARK    6  A    between atoms: C_32  and  N_33 
ROOT
HETATM    1  C   UNK N   1      43.886  38.555  52.020  0.00  0.00     0.069 A 
HETATM    2  C   UNK N   1      44.296  37.304  51.528  0.00  0.00     0.038 A 
HETATM    3  C   UNK N   1      43.391  36.469  50.871  0.00  0.00     0.018 A 
HETATM    4  C   UNK N   1      42.049  36.862  50.671  0.00  0.00     0.015 A 
HETATM    5  C   UNK N   1      41.643  38.096  51.219  0.00  0.00     0.074 A 
HETATM    6  C   UNK N   1      42.552  38.938  51.868  0.00  0.00     0.061 A 
HETATM    7  S   UNK N   1      39.929  38.530  51.119  0.00  0.00     0.180 S 
HETATM    8  O   UNK N   1      39.500  39.399  52.311  0.00  0.00    -0.222 OA
HETATM    9  O   UNK N   1      39.722  39.481  49.930  0.00  0.00    -0.222 OA
HETATM   10  C   UNK N   1      38.864  37.091  50.938  0.00  0.00     0.189 C 
HETATM   11  C   UNK N   1      39.637  36.066  50.153  0.00  0.00     0.019 A 
HETATM   12  C   UNK N   1      39.105  35.006  49.431  0.00  0.00     0.126 A 
HETATM   13  N   UNK N   1      40.115  34.352  48.835  0.00  0.00    -0.292 N 
ATOM     14  HN  UNK N   1      40.011  33.524  48.248  1.00  0.00     0.187 HD
HETATM   15  N   UNK N   1      41.264  34.940  49.124  0.00  0.00    -0.284 N 
HETATM   16  C   UNK N   1      41.029  35.975  49.981  0.00  0.00     0.072 A 
ENDROOT
BRANCH  15  17
HETATM   17  C   UNK N   1      42.504  34.493  48.466  0.00  0.00     0.137 C 
HETATM   18  C   UNK N   1      42.744  33.004  48.700  0.00  0.00     0.031 C 
HETATM   19  C   UNK N   1      44.104  32.590  48.096  0.00  0.00     0.032 C 
HETATM   20  C   UNK N   1      44.484  33.441  46.857  0.00  0.00     0.272 C 
HETATM   21  N   UNK N   1      43.297  33.882  46.102  0.00  0.00     0.092 N 
HETATM   22  C   UNK N   1      42.406  34.751  46.928  0.00  0.00     0.299 C 
BRANCH  21  23
HETATM   23  C   UNK N   1      42.601  32.765  45.415  0.00  0.00     0.302 C 
BRANCH  23  24
HETATM   24  C   UNK N   1      42.597  33.018  43.898  0.00  0.00     0.302 C 
BRANCH  24  25
HETATM   25  N   UNK N   1      41.433  33.790  43.405  0.00  0.00     0.094 N 
HETATM   26  C   UNK N   1      40.210  33.602  44.202  0.00  0.00     0.298 C 
HETATM   27  C   UNK N   1      39.050  34.316  43.498  0.00  0.00     0.198 C 
HETATM   28  O   UNK N   1      39.329  35.698  43.353  0.00  0.00    -0.388 OA
HETATM   29  C   UNK N   1      40.478  35.871  42.543  0.00  0.00     0.198 C 
HETATM   30  C   UNK N   1      41.702  35.226  43.203  0.00  0.00     0.298 C 
ENDBRANCH  24  25
ENDBRANCH  23  24
ENDBRANCH  21  23
ENDBRANCH  15  17
BRANCH  12  31
HETATM   31  C   UNK N   1      37.673  34.562  49.364  0.00  0.00     0.272 C 
HETATM   32  O   UNK N   1      37.062  34.780  48.327  0.00  0.00    -0.266 OA
HETATM   33  N   UNK N   1      36.997  34.047  50.457  0.00  0.00    -0.343 N 
HETATM   34  C   UNK N   1      37.666  33.615  51.683  0.00  0.00     0.152 C 
HETATM   35  C   UNK N   1      35.535  33.997  50.470  0.00  0.00     0.152 C 
HETATM   36  C   UNK N   1      37.030  32.305  52.174  0.00  0.00     0.187 C 
HETATM   37  O   UNK N   1      35.634  32.463  52.336  0.00  0.00    -0.388 OA
HETATM   38  C   UNK N   1      35.046  32.672  51.065  0.00  0.00     0.187 C 
ENDBRANCH  12  31
BRANCH   1  39
HETATM   39  O   UNK N   1      44.738  39.396  52.665  0.00  0.00    -0.356 OA
HETATM   40  C   UNK N   1      45.638  39.018  53.641  0.00  0.00     0.210 C 
ENDBRANCH   1  39
TORSDOF 6
ENDMDL
MODEL 2
REMARK VINA RESULT:      -8.3      1.746      2.567
REMARK  6 active torsions:
REMARK  status: ('A' for Active; 'I' for Inactive)
REMARK    1  A    between atoms: O_2  and  C_3 
REMARK    2  A    between atoms: C_14  and  C_15 
REMARK       I    between atoms: C_15  and  N_17 
REMARK    3  A    between atoms: N_25  and  C_26 
REMARK    4  A    between atoms: N_30  and  C_31 
REMARK    5  A    between atoms: C_31  and  C_32 
REMARK    6  A    between atoms: C_32  and  N_33 
ROOT
HETATM    1  C   UNK N   1      43.251  38.399  51.809  0.00  0.00     0.069 A 
HETATM    2  C   UNK N   1      43.795  37.177  51.374  0.00  0.00     0.038 A 
HETATM    3  C   UNK N   1      43.029  36.289  50.616  0.00  0.00     0.018 A 
HETATM    4  C   UNK N   1      41.700  36.599  50.255  0.00  0.00     0.015 A 
HETATM    5  C   UNK N   1      41.154  37.804  50.745  0.00  0.00     0.074 A 
HETATM    6  C   UNK N   1      41.925  38.698  51.496  0.00  0.00     0.061 A 
HETATM    7  S   UNK N   1      39.441  38.131  50.438  0.00  0.00     0.180 S 
HETATM    8  O   UNK N   1      38.819  38.967  51.566  0.00  0.00    -0.222 OA
HETATM    9  O   UNK N   1      39.320  39.071  49.228  0.00  0.00    -0.222 OA
HETATM   10  C   UNK N   1      38.498  36.628  50.135  0.00  0.00     0.189 C 
HETATM   11  C   UNK N   1      39.422  35.656  49.453  0.00  0.00     0.019 A 
HETATM   12  C   UNK N   1      39.048  34.568  48.676  0.00  0.00     0.126 A 
HETATM   13  N   UNK N   1      40.160  33.980  48.210  0.00  0.00    -0.292 N 
ATOM     14  HN  UNK N   1      40.180  33.150  47.617  1.00  0.00     0.187 HD
HETATM   15  N   UNK N   1      41.227  34.638  48.633  0.00  0.00    -0.284 N 
HETATM   16  C   UNK N   1      40.828  35.653  49.451  0.00  0.00     0.072 A 
ENDROOT
BRANCH  15  17
HETATM   17  C   UNK N   1      42.564  34.271  48.131  0.00  0.00     0.137 C 
HETATM   18  C   UNK N   1      42.871  32.802  48.410  0.00  0.00     0.031 C 
HETATM   19  C   UNK N   1      44.318  32.477  47.976  0.00  0.00     0.032 C 
HETATM   20  C   UNK N   1      44.784  33.345  46.779  0.00  0.00     0.272 C 
HETATM   21  N   UNK N   1      43.669  33.703  45.884  0.00  0.00     0.092 N 
HETATM   22  C   UNK N   1      42.631  34.514  46.589  0.00  0.00     0.299 C 
BRANCH  21  23
HETATM   23  C   UNK N   1      43.133  32.539  45.134  0.00  0.00     0.302 C 
BRANCH  23  24
HETATM   24  C   UNK N   1      41.654  32.786  44.790  0.00  0.00     0.302 C 
BRANCH  24  25
HETATM   25  N   UNK N   1      41.398  33.109  43.368  0.00  0.00     0.094 N 
HETATM   26  C   UNK N   1      41.086  34.527  43.124  0.00  0.00     0.298 C 
HETATM   27  C   UNK N   1      40.683  34.696  41.654  0.00  0.00     0.198 C 
HETATM   28  O   UNK N   1      41.731  34.274  40.798  0.00  0.00    -0.388 OA
HETATM   29  C   UNK N   1      41.990  32.897  41.004  0.00  0.00     0.198 C 
HETATM   30  C   UNK N   1      42.450  32.647  42.444  0.00  0.00     0.298 C 
ENDBRANCH  24  25
ENDBRANCH  23  24
ENDBRANCH  21  23
ENDBRANCH  15  17
BRANCH  12  31
HETATM   31  C   UNK N   1      37.665  34.037  48.440  0.00  0.00     0.272 C 
HETATM   32  O   UNK N   1      36.877  34.074  49.375  0.00  0.00    -0.266 OA
HETATM   33  N   UNK N   1      37.297  33.399  47.267  0.00  0.00    -0.343 N 
HETATM   34  C   UNK N   1      38.106  33.433  46.049  0.00  0.00     0.152 C 
HETATM   35  C   UNK N   1      36.097  32.564  47.220  0.00  0.00     0.152 C 
HETATM   36  C   UNK N   1      37.186  33.626  44.834  0.00  0.00     0.187 C 
HETATM   37  O   UNK N   1      36.189  32.623  44.804  0.00  0.00    -0.388 OA
HETATM   38  C   UNK N   1      35.328  32.799  45.915  0.00  0.00     0.187 C 
ENDBRANCH  12  31
BRANCH   1  39
HETATM   39  O   UNK N   1      43.966  39.289  52.548  0.00  0.00    -0.356 OA
HETATM   40  C   UNK N   1      44.454  39.054  53.818  0.00  0.00     0.210 C 
ENDBRANCH   1  39
TORSDOF 6
ENDMDL
MODEL 3
REMARK VINA RESULT:      -8.0      3.947      8.379
REMARK  6 active torsions:
REMARK  status: ('A' for Active; 'I' for Inactive)
REMARK    1  A    between atoms: O_2  and  C_3 
REMARK    2  A    between atoms: C_14  and  C_15 
REMARK       I    between atoms: C_15  and  N_17 
REMARK    3  A    between atoms: N_25  and  C_26 
REMARK    4  A    between atoms: N_30  and  C_31 
REMARK    5  A    between atoms: C_31  and  C_32 
REMARK    6  A    between atoms: C_32  and  N_33 
ROOT
HETATM    1  C   UNK N   1      36.711  34.330  49.816  0.00  0.00     0.069 A 
HETATM    2  C   UNK N   1      37.550  35.190  49.087  0.00  0.00     0.038 A 
HETATM    3  C   UNK N   1      38.270  36.196  49.734  0.00  0.00     0.018 A 
HETATM    4  C   UNK N   1      38.187  36.365  51.134  0.00  0.00     0.015 A 
HETATM    5  C   UNK N   1      37.299  35.529  51.841  0.00  0.00     0.074 A 
HETATM    6  C   UNK N   1      36.585  34.514  51.193  0.00  0.00     0.061 A 
HETATM    7  S   UNK N   1      37.060  35.835  53.568  0.00  0.00     0.180 S 
HETATM    8  O   UNK N   1      35.643  35.446  54.016  0.00  0.00    -0.222 OA
HETATM    9  O   UNK N   1      37.935  34.862  54.375  0.00  0.00    -0.222 OA
HETATM   10  C   UNK N   1      37.453  37.530  54.028  0.00  0.00     0.189 C 
HETATM   11  C   UNK N   1      38.565  37.986  53.122  0.00  0.00     0.019 A 
HETATM   12  C   UNK N   1      39.452  39.026  53.364  0.00  0.00     0.126 A 
HETATM   13  N   UNK N   1      40.320  39.086  52.342  0.00  0.00    -0.292 N 
ATOM     14  HN  UNK N   1      41.077  39.764  52.255  1.00  0.00     0.187 HD
HETATM   15  N   UNK N   1      40.047  38.135  51.463  0.00  0.00    -0.284 N 
HETATM   16  C   UNK N   1      38.936  37.459  51.872  0.00  0.00     0.072 A 
ENDROOT
BRANCH  15  17
HETATM   17  C   UNK N   1      40.954  37.904  50.325  0.00  0.00     0.137 C 
HETATM   18  C   UNK N   1      41.564  39.215  49.834  0.00  0.00     0.031 C 
HETATM   19  C   UNK N   1      42.419  38.956  48.573  0.00  0.00     0.032 C 
HETATM   20  C   UNK N   1      43.052  37.540  48.569  0.00  0.00     0.272 C 
HETATM   21  N   UNK N   1      43.346  37.060  49.931  0.00  0.00     0.092 N 
HETATM   22  C   UNK N   1      42.108  36.943  50.758  0.00  0.00     0.299 C 
BRANCH  21  23
HETATM   23  C   UNK N   1      44.451  37.808  50.582  0.00  0.00     0.302 C 
BRANCH  23  24
HETATM   24  C   UNK N   1      44.265  37.774  52.109  0.00  0.00     0.302 C 
BRANCH  24  25
HETATM   25  N   UNK N   1      44.941  38.872  52.836  0.00  0.00     0.094 N 
HETATM   26  C   UNK N   1      44.131  39.461  53.916  0.00  0.00     0.298 C 
HETATM   27  C   UNK N   1      44.872  40.683  54.474  0.00  0.00     0.198 C 
HETATM   28  O   UNK N   1      46.145  40.311  54.969  0.00  0.00    -0.388 OA
HETATM   29  C   UNK N   1      46.935  39.792  53.914  0.00  0.00     0.198 C 
HETATM   30  C   UNK N   1      46.288  38.531  53.330  0.00  0.00     0.298 C 
ENDBRANCH  24  25
ENDBRANCH  23  24
ENDBRANCH  21  23
ENDBRANCH  15  17
BRANCH  12  31
HETATM   31  C   UNK N   1      39.438  40.004  54.501  0.00  0.00     0.272 C 
HETATM   32  O   UNK N   1      39.013  41.128  54.274  0.00  0.00    -0.266 OA
HETATM   33  N   UNK N   1      39.999  39.725  55.736  0.00  0.00    -0.343 N 
HETATM   34  C   UNK N   1      40.395  38.380  56.151  0.00  0.00     0.152 C 
HETATM   35  C   UNK N   1      40.316  40.806  56.669  0.00  0.00     0.152 C 
HETATM   36  C   UNK N   1      39.987  38.161  57.617  0.00  0.00     0.187 C 
HETATM   37  O   UNK N   1      40.533  39.174  58.439  0.00  0.00    -0.388 OA
HETATM   38  C   UNK N   1      39.935  40.411  58.100  0.00  0.00     0.187 C 
ENDBRANCH  12  31
BRANCH   1  39
HETATM   39  O   UNK N   1      35.994  33.339  49.221  0.00  0.00    -0.356 OA
HETATM   40  C   UNK N   1      36.218  31.987  49.389  0.00  0.00     0.210 C 
ENDBRANCH   1  39
TORSDOF 6
ENDMDL
MODEL 4
REMARK VINA RESULT:      -7.6      4.235      6.788
REMARK  6 active torsions:
REMARK  status: ('A' for Active; 'I' for Inactive)
REMARK    1  A    between atoms: O_2  and  C_3 
REMARK    2  A    between atoms: C_14  and  C_15 
REMARK       I    between atoms: C_15  and  N_17 
REMARK    3  A    between atoms: N_25  and  C_26 
REMARK    4  A    between atoms: N_30  and  C_31 
REMARK    5  A    between atoms: C_31  and  C_32 
REMARK    6  A    between atoms: C_32  and  N_33 
ROOT
HETATM    1  C   UNK N   1      45.511  37.731  51.033  0.00  0.00     0.069 A 
HETATM    2  C   UNK N   1      44.199  37.321  50.738  0.00  0.00     0.038 A 
HETATM    3  C   UNK N   1      43.128  37.752  51.523  0.00  0.00     0.018 A 
HETATM    4  C   UNK N   1      43.330  38.618  52.619  0.00  0.00     0.015 A 
HETATM    5  C   UNK N   1      44.658  38.975  52.932  0.00  0.00     0.074 A 
HETATM    6  C   UNK N   1      45.731  38.552  52.140  0.00  0.00     0.061 A 
HETATM    7  S   UNK N   1      44.943  39.927  54.398  0.00  0.00     0.180 S 
HETATM    8  O   UNK N   1      46.314  39.610  55.015  0.00  0.00    -0.222 OA
HETATM    9  O   UNK N   1      45.093  41.407  54.012  0.00  0.00    -0.222 OA
HETATM   10  C   UNK N   1      43.621  39.745  55.605  0.00  0.00     0.189 C 
HETATM   11  C   UNK N   1      42.345  39.538  54.834  0.00  0.00     0.019 A 
HETATM   12  C   UNK N   1      41.055  39.762  55.297  0.00  0.00     0.126 A 
HETATM   13  N   UNK N   1      40.198  39.505  54.297  0.00  0.00    -0.292 N 
ATOM     14  HN  UNK N   1      39.182  39.580  54.362  1.00  0.00     0.187 HD
HETATM   15  N   UNK N   1      40.865  39.140  53.215  0.00  0.00    -0.284 N 
HETATM   16  C   UNK N   1      42.196  39.092  53.509  0.00  0.00     0.072 A 
ENDROOT
BRANCH  15  17
HETATM   17  C   UNK N   1      40.151  38.948  51.940  0.00  0.00     0.137 C 
HETATM   18  C   UNK N   1      41.010  39.388  50.757  0.00  0.00     0.031 C 
HETATM   19  C   UNK N   1      40.196  39.281  49.449  0.00  0.00     0.032 C 
HETATM   20  C   UNK N   1      39.140  38.146  49.500  0.00  0.00     0.272 C 
HETATM   21  N   UNK N   1      39.577  37.020  50.345  0.00  0.00     0.092 N 
HETATM   22  C   UNK N   1      39.786  37.440  51.764  0.00  0.00     0.299 C 
BRANCH  21  23
HETATM   23  C   UNK N   1      40.709  36.261  49.756  0.00  0.00     0.302 C 
BRANCH  23  24
HETATM   24  C   UNK N   1      40.164  35.167  48.822  0.00  0.00     0.302 C 
BRANCH  24  25
HETATM   25  N   UNK N   1      41.164  34.159  48.405  0.00  0.00     0.094 N 
HETATM   26  C   UNK N   1      41.527  34.232  46.980  0.00  0.00     0.298 C 
HETATM   27  C   UNK N   1      42.435  33.042  46.642  0.00  0.00     0.198 C 
HETATM   28  O   UNK N   1      43.603  33.063  47.444  0.00  0.00    -0.388 OA
HETATM   29  C   UNK N   1      43.247  32.942  48.810  0.00  0.00     0.198 C 
HETATM   30  C   UNK N   1      42.376  34.125  49.245  0.00  0.00     0.298 C 
ENDBRANCH  24  25
ENDBRANCH  23  24
ENDBRANCH  21  23
ENDBRANCH  15  17
BRANCH  12  31
HETATM   31  C   UNK N   1      40.626  40.136  56.685  0.00  0.00     0.272 C 
HETATM   32  O   UNK N   1      40.759  41.305  57.021  0.00  0.00    -0.266 OA
HETATM   33  N   UNK N   1      40.218  39.201  57.621  0.00  0.00    -0.343 N 
HETATM   34  C   UNK N   1      39.887  37.818  57.280  0.00  0.00     0.152 C 
HETATM   35  C   UNK N   1      40.188  39.538  59.044  0.00  0.00     0.152 C 
HETATM   36  C   UNK N   1      38.633  37.390  58.059  0.00  0.00     0.187 C 
HETATM   37  O   UNK N   1      38.822  37.584  59.447  0.00  0.00    -0.388 OA
HETATM   38  C   UNK N   1      38.926  38.972  59.705  0.00  0.00     0.187 C 
ENDBRANCH  12  31
BRANCH   1  39
HETATM   39  O   UNK N   1      46.580  37.333  50.292  0.00  0.00    -0.356 OA
HETATM   40  C   UNK N   1      47.894  37.365  50.714  0.00  0.00     0.210 C 
ENDBRANCH   1  39
TORSDOF 6
ENDMDL
MODEL 5
REMARK VINA RESULT:      -7.3      4.065      8.583
REMARK  6 active torsions:
REMARK  status: ('A' for Active; 'I' for Inactive)
REMARK    1  A    between atoms: O_2  and  C_3 
REMARK    2  A    between atoms: C_14  and  C_15 
REMARK       I    between atoms: C_15  and  N_17 
REMARK    3  A    between atoms: N_25  and  C_26 
REMARK    4  A    between atoms: N_30  and  C_31 
REMARK    5  A    between atoms: C_31  and  C_32 
REMARK    6  A    between atoms: C_32  and  N_33 
ROOT
HETATM    1  C   UNK N   1      43.473  34.501  48.397  0.00  0.00     0.069 A 
HETATM    2  C   UNK N   1      42.177  34.326  48.910  0.00  0.00     0.038 A 
HETATM    3  C   UNK N   1      41.611  35.286  49.751  0.00  0.00     0.018 A 
HETATM    4  C   UNK N   1      42.316  36.460  50.095  0.00  0.00     0.015 A 
HETATM    5  C   UNK N   1      43.635  36.593  49.615  0.00  0.00     0.074 A 
HETATM    6  C   UNK N   1      44.199  35.635  48.764  0.00  0.00     0.061 A 
HETATM    7  S   UNK N   1      44.590  37.978  50.167  0.00  0.00     0.180 S 
HETATM    8  O   UNK N   1      46.087  37.638  50.230  0.00  0.00    -0.222 OA
HETATM    9  O   UNK N   1      44.548  39.075  49.093  0.00  0.00    -0.222 OA
HETATM   10  C   UNK N   1      44.000  38.639  51.734  0.00  0.00     0.189 C 
HETATM   11  C   UNK N   1      42.510  38.432  51.768  0.00  0.00     0.019 A 
HETATM   12  C   UNK N   1      41.597  39.126  52.550  0.00  0.00     0.126 A 
HETATM   13  N   UNK N   1      40.365  38.681  52.257  0.00  0.00    -0.292 N 
ATOM     14  HN  UNK N   1      39.504  39.013  52.692  1.00  0.00     0.187 HD
HETATM   15  N   UNK N   1      40.435  37.748  51.322  0.00  0.00    -0.284 N 
HETATM   16  C   UNK N   1      41.745  37.517  51.022  0.00  0.00     0.072 A 
ENDROOT
BRANCH  15  17
HETATM   17  C   UNK N   1      39.199  37.210  50.727  0.00  0.00     0.137 C 
HETATM   18  C   UNK N   1      38.648  36.054  51.558  0.00  0.00     0.031 C 
HETATM   19  C   UNK N   1      37.419  35.439  50.851  0.00  0.00     0.032 C 
HETATM   20  C   UNK N   1      36.633  36.484  50.018  0.00  0.00     0.272 C 
HETATM   21  N   UNK N   1      36.712  37.834  50.604  0.00  0.00     0.092 N 
HETATM   22  C   UNK N   1      38.118  38.336  50.653  0.00  0.00     0.299 C 
BRANCH  21  23
HETATM   23  C   UNK N   1      35.973  37.952  51.886  0.00  0.00     0.302 C 
BRANCH  23  24
HETATM   24  C   UNK N   1      35.389  39.370  52.014  0.00  0.00     0.302 C 
BRANCH  24  25
HETATM   25  N   UNK N   1      35.887  40.138  53.177  0.00  0.00     0.094 N 
HETATM   26  C   UNK N   1      34.842  40.493  54.151  0.00  0.00     0.298 C 
HETATM   27  C   UNK N   1      35.452  41.420  55.211  0.00  0.00     0.198 C 
HETATM   28  O   UNK N   1      36.533  40.782  55.868  0.00  0.00    -0.388 OA
HETATM   29  C   UNK N   1      37.556  40.490  54.931  0.00  0.00     0.198 C 
HETATM   30  C   UNK N   1      37.041  39.523  53.859  0.00  0.00     0.298 C 
ENDBRANCH  24  25
ENDBRANCH  23  24
ENDBRANCH  21  23
ENDBRANCH  15  17
BRANCH  12  31
HETATM   31  C   UNK N   1      41.883  40.141  53.617  0.00  0.00     0.272 C 
HETATM   32  O   UNK N   1      42.301  41.234  53.261  0.00  0.00    -0.266 OA
HETATM   33  N   UNK N   1      41.818  39.846  54.968  0.00  0.00    -0.343 N 
HETATM   34  C   UNK N   1      41.195  38.632  55.494  0.00  0.00     0.152 C 
HETATM   35  C   UNK N   1      42.468  40.713  55.951  0.00  0.00     0.152 C 
HETATM   36  C   UNK N   1      40.375  38.983  56.746  0.00  0.00     0.187 C 
HETATM   37  O   UNK N   1      41.186  39.642  57.699  0.00  0.00    -0.388 OA
HETATM   38  C   UNK N   1      41.571  40.901  57.180  0.00  0.00     0.187 C 
ENDBRANCH  12  31
BRANCH   1  39
HETATM   39  O   UNK N   1      44.058  33.588  47.576  0.00  0.00    -0.356 OA
HETATM   40  C   UNK N   1      43.684  32.264  47.467  0.00  0.00     0.210 C 
ENDBRANCH   1  39
TORSDOF 6
ENDMDL
MODEL 6
REMARK VINA RESULT:      -7.3      5.110      9.294
REMARK  6 active torsions:
REMARK  status: ('A' for Active; 'I' for Inactive)
REMARK    1  A    between atoms: O_2  and  C_3 
REMARK    2  A    between atoms: C_14  and  C_15 
REMARK       I    between atoms: C_15  and  N_17 
REMARK    3  A    between atoms: N_25  and  C_26 
REMARK    4  A    between atoms: N_30  and  C_31 
REMARK    5  A    between atoms: C_31  and  C_32 
REMARK    6  A    between atoms: C_32  and  N_33 
ROOT
HETATM    1  C   UNK N   1      41.946  36.789  48.874  0.00  0.00     0.069 A 
HETATM    2  C   UNK N   1      42.569  37.770  49.665  0.00  0.00     0.038 A 
HETATM    3  C   UNK N   1      41.894  38.346  50.743  0.00  0.00     0.018 A 
HETATM    4  C   UNK N   1      40.580  37.950  51.075  0.00  0.00     0.015 A 
HETATM    5  C   UNK N   1      39.952  37.005  50.239  0.00  0.00     0.074 A 
HETATM    6  C   UNK N   1      40.632  36.420  49.164  0.00  0.00     0.061 A 
HETATM    7  S   UNK N   1      38.252  36.618  50.544  0.00  0.00     0.180 S 
HETATM    8  O   UNK N   1      37.520  36.243  49.247  0.00  0.00    -0.222 OA
HETATM    9  O   UNK N   1      38.172  35.313  51.353  0.00  0.00    -0.222 OA
HETATM   10  C   UNK N   1      37.395  37.932  51.426  0.00  0.00     0.189 C 
HETATM   11  C   UNK N   1      38.403  38.587  52.331  0.00  0.00     0.019 A 
HETATM   12  C   UNK N   1      38.129  39.337  53.466  0.00  0.00     0.126 A 
HETATM   13  N   UNK N   1      39.294  39.705  54.021  0.00  0.00    -0.292 N 
ATOM     14  HN  UNK N   1      39.388  40.273  54.864  1.00  0.00     0.187 HD
HETATM   15  N   UNK N   1      40.301  39.222  53.313  0.00  0.00    -0.284 N 
HETATM   16  C   UNK N   1      39.805  38.566  52.225  0.00  0.00     0.072 A 
ENDROOT
BRANCH  15  17
HETATM   17  C   UNK N   1      41.682  39.366  53.806  0.00  0.00     0.137 C 
HETATM   18  C   UNK N   1      42.212  40.775  53.550  0.00  0.00     0.031 C 
HETATM   19  C   UNK N   1      43.695  40.863  53.974  0.00  0.00     0.032 C 
HETATM   20  C   UNK N   1      44.032  39.909  55.149  0.00  0.00     0.272 C 
HETATM   21  N   UNK N   1      42.882  39.711  56.050  0.00  0.00     0.092 N 
HETATM   22  C   UNK N   1      41.725  39.084  55.342  0.00  0.00     0.299 C 
BRANCH  21  23
HETATM   23  C   UNK N   1      42.540  40.929  56.827  0.00  0.00     0.302 C 
BRANCH  23  24
HETATM   24  C   UNK N   1      41.348  40.629  57.753  0.00  0.00     0.302 C 
BRANCH  24  25
HETATM   25  N   UNK N   1      40.167  41.495  57.536  0.00  0.00     0.094 N 
HETATM   26  C   UNK N   1      38.906  40.754  57.366  0.00  0.00     0.298 C 
HETATM   27  C   UNK N   1      37.800  41.747  56.987  0.00  0.00     0.198 C 
HETATM   28  O   UNK N   1      37.651  42.735  57.991  0.00  0.00    -0.388 OA
HETATM   29  C   UNK N   1      38.852  43.476  58.114  0.00  0.00     0.198 C 
HETATM   30  C   UNK N   1      40.006  42.562  58.542  0.00  0.00     0.298 C 
ENDBRANCH  24  25
ENDBRANCH  23  24
ENDBRANCH  21  23
ENDBRANCH  15  17
BRANCH  12  31
HETATM   31  C   UNK N   1      36.788  39.773  53.981  0.00  0.00     0.272 C 
HETATM   32  O   UNK N   1      36.358  40.851  53.593  0.00  0.00    -0.266 OA
HETATM   33  N   UNK N   1      36.097  39.077  54.957  0.00  0.00    -0.343 N 
HETATM   34  C   UNK N   1      36.449  37.719  55.373  0.00  0.00     0.152 C 
HETATM   35  C   UNK N   1      35.014  39.718  55.703  0.00  0.00     0.152 C 
HETATM   36  C   UNK N   1      35.164  36.897  55.558  0.00  0.00     0.187 C 
HETATM   37  O   UNK N   1      34.290  37.541  56.464  0.00  0.00    -0.388 OA
HETATM   38  C   UNK N   1      33.839  38.751  55.884  0.00  0.00     0.187 C 
ENDBRANCH  12  31
BRANCH   1  39
HETATM   39  O   UNK N   1      42.571  36.205  47.817  0.00  0.00    -0.356 OA
HETATM   40  C   UNK N   1      42.835  34.855  47.697  0.00  0.00     0.210 C 
ENDBRANCH   1  39
TORSDOF 6
ENDMDL
MODEL 7
REMARK VINA RESULT:      -7.1      7.095     11.677
REMARK  6 active torsions:
REMARK  status: ('A' for Active; 'I' for Inactive)
REMARK    1  A    between atoms: O_2  and  C_3 
REMARK    2  A    between atoms: C_14  and  C_15 
REMARK       I    between atoms: C_15  and  N_17 
REMARK    3  A    between atoms: N_25  and  C_26 
REMARK    4  A    between atoms: N_30  and  C_31 
REMARK    5  A    between atoms: C_31  and  C_32 
REMARK    6  A    between atoms: C_32  and  N_33 
ROOT
HETATM    1  C   UNK N   1      42.733  38.586  51.109  0.00  0.00     0.069 A 
HETATM    2  C   UNK N   1      41.405  38.297  51.471  0.00  0.00     0.038 A 
HETATM    3  C   UNK N   1      40.888  38.745  52.688  0.00  0.00     0.018 A 
HETATM    4  C   UNK N   1      41.675  39.509  53.577  0.00  0.00     0.015 A 
HETATM    5  C   UNK N   1      43.020  39.742  53.222  0.00  0.00     0.074 A 
HETATM    6  C   UNK N   1      43.535  39.302  51.998  0.00  0.00     0.061 A 
HETATM    7  S   UNK N   1      44.064  40.558  54.397  0.00  0.00     0.180 S 
HETATM    8  O   UNK N   1      45.523  40.095  54.266  0.00  0.00    -0.222 OA
HETATM    9  O   UNK N   1      44.160  42.047  54.032  0.00  0.00    -0.222 OA
HETATM   10  C   UNK N   1      43.467  40.383  56.086  0.00  0.00     0.189 C 
HETATM   11  C   UNK N   1      41.965  40.329  56.020  0.00  0.00     0.019 A 
HETATM   12  C   UNK N   1      41.082  40.612  57.053  0.00  0.00     0.126 A 
HETATM   13  N   UNK N   1      39.830  40.495  56.583  0.00  0.00    -0.292 N 
ATOM     14  HN  UNK N   1      38.983  40.639  57.132  1.00  0.00     0.187 HD
HETATM   15  N   UNK N   1      39.860  40.165  55.303  0.00  0.00    -0.284 N 
HETATM   16  C   UNK N   1      41.157  39.996  54.918  0.00  0.00     0.072 A 
ENDROOT
BRANCH  15  17
HETATM   17  C   UNK N   1      38.609  40.123  54.526  0.00  0.00     0.137 C 
HETATM   18  C   UNK N   1      37.649  39.076  55.086  0.00  0.00     0.031 C 
HETATM   19  C   UNK N   1      36.398  38.976  54.186  0.00  0.00     0.032 C 
HETATM   20  C   UNK N   1      36.055  40.323  53.499  0.00  0.00     0.272 C 
HETATM   21  N   UNK N   1      36.440  41.481  54.325  0.00  0.00     0.092 N 
HETATM   22  C   UNK N   1      37.912  41.520  54.574  0.00  0.00     0.299 C 
BRANCH  21  23
HETATM   23  C   UNK N   1      35.607  41.622  55.546  0.00  0.00     0.302 C 
BRANCH  23  24
HETATM   24  C   UNK N   1      36.452  42.234  56.677  0.00  0.00     0.302 C 
BRANCH  24  25
HETATM   25  N   UNK N   1      36.120  43.640  57.002  0.00  0.00     0.094 N 
HETATM   26  C   UNK N   1      35.721  43.851  58.403  0.00  0.00     0.298 C 
HETATM   27  C   UNK N   1      35.248  45.302  58.566  0.00  0.00     0.198 C 
HETATM   28  O   UNK N   1      36.281  46.205  58.214  0.00  0.00    -0.388 OA
HETATM   29  C   UNK N   1      36.625  46.029  56.851  0.00  0.00     0.198 C 
HETATM   30  C   UNK N   1      37.158  44.612  56.610  0.00  0.00     0.298 C 
ENDBRANCH  24  25
ENDBRANCH  23  24
ENDBRANCH  21  23
ENDBRANCH  15  17
BRANCH  12  31
HETATM   31  C   UNK N   1      41.408  40.911  58.487  0.00  0.00     0.272 C 
HETATM   32  O   UNK N   1      42.361  40.327  58.983  0.00  0.00    -0.266 OA
HETATM   33  N   UNK N   1      40.607  41.707  59.287  0.00  0.00    -0.343 N 
HETATM   34  C   UNK N   1      39.542  42.560  58.759  0.00  0.00     0.152 C 
HETATM   35  C   UNK N   1      40.730  41.659  60.744  0.00  0.00     0.152 C 
HETATM   36  C   UNK N   1      39.566  43.912  59.489  0.00  0.00     0.187 C 
HETATM   37  O   UNK N   1      39.475  43.721  60.887  0.00  0.00    -0.388 OA
HETATM   38  C   UNK N   1      40.649  43.070  61.338  0.00  0.00     0.187 C 
ENDBRANCH  12  31
BRANCH   1  39
HETATM   39  O   UNK N   1      43.272  38.166  49.933  0.00  0.00    -0.356 OA
HETATM   40  C   UNK N   1      42.582  38.040  48.744  0.00  0.00     0.210 C 
ENDBRANCH   1  39
TORSDOF 6
ENDMDL
MODEL 8
REMARK VINA RESULT:      -7.1      4.769      6.817
REMARK  6 active torsions:
REMARK  status: ('A' for Active; 'I' for Inactive)
REMARK    1  A    between atoms: O_2  and  C_3 
REMARK    2  A    between atoms: C_14  and  C_15 
REMARK       I    between atoms: C_15  and  N_17 
REMARK    3  A    between atoms: N_25  and  C_26 
REMARK    4  A    between atoms: N_30  and  C_31 
REMARK    5  A    between atoms: C_31  and  C_32 
REMARK    6  A    between atoms: C_32  and  N_33 
ROOT
HETATM    1  C   UNK N   1      45.090  40.119  54.619  0.00  0.00     0.069 A 
HETATM    2  C   UNK N   1      44.476  39.467  53.536  0.00  0.00     0.038 A 
HETATM    3  C   UNK N   1      43.119  39.143  53.580  0.00  0.00     0.018 A 
HETATM    4  C   UNK N   1      42.327  39.473  54.702  0.00  0.00     0.015 A 
HETATM    5  C   UNK N   1      42.972  40.078  55.800  0.00  0.00     0.074 A 
HETATM    6  C   UNK N   1      44.330  40.412  55.752  0.00  0.00     0.061 A 
HETATM    7  S   UNK N   1      42.031  40.351  57.275  0.00  0.00     0.180 S 
HETATM    8  O   UNK N   1      42.916  40.273  58.528  0.00  0.00    -0.222 OA
HETATM    9  O   UNK N   1      41.555  41.812  57.302  0.00  0.00    -0.222 OA
HETATM   10  C   UNK N   1      40.614  39.249  57.401  0.00  0.00     0.189 C 
HETATM   11  C   UNK N   1      40.137  38.981  55.999  0.00  0.00     0.019 A 
HETATM   12  C   UNK N   1      38.871  38.549  55.626  0.00  0.00     0.126 A 
HETATM   13  N   UNK N   1      38.828  38.475  54.287  0.00  0.00    -0.292 N 
ATOM     14  HN  UNK N   1      38.018  38.176  53.742  1.00  0.00     0.187 HD
HETATM   15  N   UNK N   1      39.991  38.848  53.778  0.00  0.00    -0.284 N 
HETATM   16  C   UNK N   1      40.854  39.120  54.798  0.00  0.00     0.072 A 
ENDROOT
BRANCH  15  17
HETATM   17  C   UNK N   1      40.142  38.993  52.319  0.00  0.00     0.137 C 
HETATM   18  C   UNK N   1      41.270  38.108  51.794  0.00  0.00     0.031 C 
HETATM   19  C   UNK N   1      41.479  38.365  50.285  0.00  0.00     0.032 C 
HETATM   20  C   UNK N   1      40.167  38.777  49.568  0.00  0.00     0.272 C 
HETATM   21  N   UNK N   1      38.980  38.160  50.187  0.00  0.00     0.092 N 
HETATM   22  C   UNK N   1      38.811  38.587  51.609  0.00  0.00     0.299 C 
BRANCH  21  23
HETATM   23  C   UNK N   1      38.913  36.692  49.975  0.00  0.00     0.302 C 
BRANCH  23  24
HETATM   24  C   UNK N   1      38.513  36.000  51.290  0.00  0.00     0.302 C 
BRANCH  24  25
HETATM   25  N   UNK N   1      37.501  34.930  51.139  0.00  0.00     0.094 N 
HETATM   26  C   UNK N   1      36.111  35.408  51.215  0.00  0.00     0.298 C 
HETATM   27  C   UNK N   1      35.173  34.193  51.212  0.00  0.00     0.198 C 
HETATM   28  O   UNK N   1      35.360  33.423  50.038  0.00  0.00    -0.388 OA
HETATM   29  C   UNK N   1      36.686  32.925  49.998  0.00  0.00     0.198 C 
HETATM   30  C   UNK N   1      37.691  34.081  49.948  0.00  0.00     0.298 C 
ENDBRANCH  24  25
ENDBRANCH  23  24
ENDBRANCH  21  23
ENDBRANCH  15  17
BRANCH  12  31
HETATM   31  C   UNK N   1      37.740  38.133  56.519  0.00  0.00     0.272 C 
HETATM   32  O   UNK N   1      36.875  38.964  56.760  0.00  0.00    -0.266 OA
HETATM   33  N   UNK N   1      37.709  36.911  57.170  0.00  0.00    -0.343 N 
HETATM   34  C   UNK N   1      38.605  35.804  56.838  0.00  0.00     0.152 C 
HETATM   35  C   UNK N   1      36.819  36.699  58.311  0.00  0.00     0.152 C 
HETATM   36  C   UNK N   1      37.812  34.488  56.853  0.00  0.00     0.187 C 
HETATM   37  O   UNK N   1      37.161  34.316  58.097  0.00  0.00    -0.388 OA
HETATM   38  C   UNK N   1      36.167  35.314  58.236  0.00  0.00     0.187 C 
ENDBRANCH  12  31
BRANCH   1  39
HETATM   39  O   UNK N   1      46.409  40.450  54.613  0.00  0.00    -0.356 OA
HETATM   40  C   UNK N   1      47.378  39.838  53.843  0.00  0.00     0.210 C 
ENDBRANCH   1  39
TORSDOF 6
ENDMDL
MODEL 9
REMARK VINA RESULT:      -7.0      3.903      8.523
REMARK  6 active torsions:
REMARK  status: ('A' for Active; 'I' for Inactive)
REMARK    1  A    between atoms: O_2  and  C_3 
REMARK    2  A    between atoms: C_14  and  C_15 
REMARK       I    between atoms: C_15  and  N_17 
REMARK    3  A    between atoms: N_25  and  C_26 
REMARK    4  A    between atoms: N_30  and  C_31 
REMARK    5  A    between atoms: C_31  and  C_32 
REMARK    6  A    between atoms: C_32  and  N_33 
ROOT
HETATM    1  C   UNK N   1      43.273  34.483  48.334  0.00  0.00     0.069 A 
HETATM    2  C   UNK N   1      41.988  34.356  48.889  0.00  0.00     0.038 A 
HETATM    3  C   UNK N   1      41.487  35.333  49.751  0.00  0.00     0.018 A 
HETATM    4  C   UNK N   1      42.249  36.477  50.077  0.00  0.00     0.015 A 
HETATM    5  C   UNK N   1      43.556  36.560  49.555  0.00  0.00     0.074 A 
HETATM    6  C   UNK N   1      44.054  35.586  48.682  0.00  0.00     0.061 A 
HETATM    7  S   UNK N   1      44.582  37.904  50.081  0.00  0.00     0.180 S 
HETATM    8  O   UNK N   1      46.065  37.507  50.094  0.00  0.00    -0.222 OA
HETATM    9  O   UNK N   1      44.548  39.008  49.013  0.00  0.00    -0.222 OA
HETATM   10  C   UNK N   1      44.069  38.580  51.669  0.00  0.00     0.189 C 
HETATM   11  C   UNK N   1      42.574  38.430  51.750  0.00  0.00     0.019 A 
HETATM   12  C   UNK N   1      41.714  39.156  52.564  0.00  0.00     0.126 A 
HETATM   13  N   UNK N   1      40.457  38.761  52.310  0.00  0.00    -0.292 N 
ATOM     14  HN  UNK N   1      39.624  39.123  52.773  1.00  0.00     0.187 HD
HETATM   15  N   UNK N   1      40.460  37.830  51.369  0.00  0.00    -0.284 N 
HETATM   16  C   UNK N   1      41.750  37.550  51.026  0.00  0.00     0.072 A 
ENDROOT
BRANCH  15  17
HETATM   17  C   UNK N   1      39.185  37.344  50.813  0.00  0.00     0.137 C 
HETATM   18  C   UNK N   1      38.901  35.913  51.261  0.00  0.00     0.031 C 
HETATM   19  C   UNK N   1      37.619  35.392  50.573  0.00  0.00     0.032 C 
HETATM   20  C   UNK N   1      36.604  36.526  50.280  0.00  0.00     0.272 C 
HETATM   21  N   UNK N   1      36.675  37.607  51.280  0.00  0.00     0.092 N 
HETATM   22  C   UNK N   1      38.017  38.263  51.293  0.00  0.00     0.299 C 
BRANCH  21  23
HETATM   23  C   UNK N   1      36.181  37.191  52.617  0.00  0.00     0.302 C 
BRANCH  23  24
HETATM   24  C   UNK N   1      37.008  37.889  53.710  0.00  0.00     0.302 C 
BRANCH  24  25
HETATM   25  N   UNK N   1      37.582  36.977  54.725  0.00  0.00     0.094 N 
HETATM   26  C   UNK N   1      37.162  37.276  56.104  0.00  0.00     0.298 C 
HETATM   27  C   UNK N   1      37.948  36.375  57.064  0.00  0.00     0.198 C 
HETATM   28  O   UNK N   1      37.714  35.009  56.770  0.00  0.00    -0.388 OA
HETATM   29  C   UNK N   1      38.167  34.718  55.459  0.00  0.00     0.198 C 
HETATM   30  C   UNK N   1      37.393  35.545  54.427  0.00  0.00     0.298 C 
ENDBRANCH  24  25
ENDBRANCH  23  24
ENDBRANCH  21  23
ENDBRANCH  15  17
BRANCH  12  31
HETATM   31  C   UNK N   1      42.074  40.153  53.626  0.00  0.00     0.272 C 
HETATM   32  O   UNK N   1      42.588  41.202  53.264  0.00  0.00    -0.266 OA
HETATM   33  N   UNK N   1      41.967  39.879  54.978  0.00  0.00    -0.343 N 
HETATM   34  C   UNK N   1      41.236  38.728  55.507  0.00  0.00     0.152 C 
HETATM   35  C   UNK N   1      42.678  40.697  55.961  0.00  0.00     0.152 C 
HETATM   36  C   UNK N   1      40.435  39.161  56.745  0.00  0.00     0.187 C 
HETATM   37  O   UNK N   1      41.288  39.758  57.703  0.00  0.00    -0.388 OA
HETATM   38  C   UNK N   1      41.786  40.974  57.177  0.00  0.00     0.187 C 
ENDBRANCH  12  31
BRANCH   1  39
HETATM   39  O   UNK N   1      43.795  33.553  47.491  0.00  0.00    -0.356 OA
HETATM   40  C   UNK N   1      44.182  32.279  47.856  0.00  0.00     0.210 C 
ENDBRANCH   1  39
TORSDOF 6
ENDMDL
